# CIF file 
data_findsym-output
_audit_creation_method FINDSYM

_chemical_name_mineral 'Al13Co4'
_chemical_formula_sum 'Al13 Co4'

loop_
_publ_author_name
 'R. C. Hudd'
 'W. H. Taylor'
_journal_name_full_name
;
 Acta Cristallographica
;
_journal_volume 15
_journal_year 1962
_journal_page_first 441
_journal_page_last 442
_publ_Section_title
;
 The Structure of Co$_{4}$Al$_{13}$
;

# Found in Structure investigation of the (100) surface of the orthorhombic Al$_{13}$Co$_{4}$ crystal, 2009

_aflow_title 'Monoclinic Co$_{4}$Al$_{13}$ Structure'
_aflow_proto 'A13B4_mC102_8_17a11b_8a2b'
_aflow_params 'a,b/a,c/a,\beta,x_{1},z_{1},x_{2},z_{2},x_{3},z_{3},x_{4},z_{4},x_{5},z_{5},x_{6},z_{6},x_{7},z_{7},x_{8},z_{8},x_{9},z_{9},x_{10},z_{10},x_{11},z_{11},x_{12},z_{12},x_{13},z_{13},x_{14},z_{14},x_{15},z_{15},x_{16},z_{16},x_{17},z_{17},x_{18},z_{18},x_{19},z_{19},x_{20},z_{20},x_{21},z_{21},x_{22},z_{22},x_{23},z_{23},x_{24},z_{24},x_{25},z_{25},x_{26},y_{26},z_{26},x_{27},y_{27},z_{27},x_{28},y_{28},z_{28},x_{29},y_{29},z_{29},x_{30},y_{30},z_{30},x_{31},y_{31},z_{31},x_{32},y_{32},z_{32},x_{33},y_{33},z_{33},x_{34},y_{34},z_{34},x_{35},y_{35},z_{35},x_{36},y_{36},z_{36},x_{37},y_{37},z_{37},x_{38},y_{38},z_{38}'
_aflow_params_values '15.183,0.534940393862,0.812751103208,107.9,0.055,0.174,0.329,0.28,0.767,0.469,-0.077,0.424,0.754,0.031,0.522,0.169,0.502,0.499,0.702,0.23,-0.095,0.212,-0.055,0.825,0.67,0.72,0.232,0.532,0.077,0.576,0.245,-0.034,0.477,0.831,0.297,0.769,0.095,0.788,0.086,0.382,0.604,0.373,-0.091,0.012,0.597,0.018,-0.087,0.617,0.395,0.626,0.09,-0.013,0.402,-0.018,0.185,0.217,0.111,0.364,0.21,0.111,0.176,0.219,0.334,0.491,0.224,0.331,0.367,0.21,0.477,0.498,0.248,0.0,0.314,0.282,0.888,0.124,0.271,0.888,0.322,0.28,0.666,0.008,0.279,0.669,0.131,0.289,0.532,0.318,0.292,0.277,0.182,0.229,0.722'
_aflow_Strukturbericht 'None'
_aflow_Pearson 'mC102'

_symmetry_space_group_name_H-M "C 1 m 1"
_symmetry_Int_Tables_number 8
 
_cell_length_a    15.18300
_cell_length_b    8.12200
_cell_length_c    12.34000
_cell_angle_alpha 90.00000
_cell_angle_beta  107.90000
_cell_angle_gamma 90.00000
 
loop_
_space_group_symop_id
_space_group_symop_operation_xyz
1 x,y,z
2 x,-y,z
3 x+1/2,y+1/2,z
4 x+1/2,-y+1/2,z
 
loop_
_atom_site_label
_atom_site_type_symbol
_atom_site_symmetry_multiplicity
_atom_site_Wyckoff_label
_atom_site_fract_x
_atom_site_fract_y
_atom_site_fract_z
_atom_site_occupancy
Al1 Al 2 a 0.05500 0.00000 0.17400 1.00000
Al2 Al 2 a 0.32900 0.00000 0.28000 1.00000
Al3 Al 2 a 0.76700 0.00000 0.46900 1.00000
Al4 Al 2 a -0.07700 0.00000 0.42400 0.30000
Al5 Al 2 a 0.75400 0.00000 0.03100 0.70000
Al6 Al 2 a 0.52200 0.00000 0.16900 1.00000
Al7 Al 2 a 0.50200 0.00000 0.49900 1.00000
Al8 Al 2 a 0.70200 0.00000 0.23000 1.00000
Al9 Al 2 a -0.09500 0.00000 0.21200 0.70000
Al10 Al 2 a -0.05500 0.00000 0.82500 1.00000
Al11 Al 2 a 0.67000 0.00000 0.72000 1.00000
Al12 Al 2 a 0.23200 0.00000 0.53200 1.00000
Al13 Al 2 a 0.07700 0.00000 0.57600 0.30000
Al14 Al 2 a 0.24500 0.00000 -0.03400 0.70000
Al15 Al 2 a 0.47700 0.00000 0.83100 1.00000
Al16 Al 2 a 0.29700 0.00000 0.76900 1.00000
Al17 Al 2 a 0.09500 0.00000 0.78800 0.30000
Co1 Co 2 a 0.08600 0.00000 0.38200 1.00000
Co2 Co 2 a 0.60400 0.00000 0.37300 1.00000
Co3 Co 2 a -0.09100 0.00000 0.01200 1.00000
Co4 Co 2 a 0.59700 0.00000 0.01800 1.00000
Co5 Co 2 a -0.08700 0.00000 0.61700 1.00000
Co6 Co 2 a 0.39500 0.00000 0.62600 1.00000
Co7 Co 2 a 0.09000 0.00000 -0.01300 1.00000
Co8 Co 2 a 0.40200 0.00000 -0.01800 1.00000
Al18 Al 4 b 0.18500 0.21700 0.11100 1.00000
Al19 Al 4 b 0.36400 0.21000 0.11100 1.00000
Al20 Al 4 b 0.17600 0.21900 0.33400 1.00000
Al21 Al 4 b 0.49100 0.22400 0.33100 1.00000
Al22 Al 4 b 0.36700 0.21000 0.47700 1.00000
Al23 Al 4 b 0.49800 0.24800 0.00000 1.00000
Al24 Al 4 b 0.31400 0.28200 0.88800 1.00000
Al25 Al 4 b 0.12400 0.27100 0.88800 1.00000
Al26 Al 4 b 0.32200 0.28000 0.66600 1.00000
Al27 Al 4 b 0.00800 0.27900 0.66900 1.00000
Al28 Al 4 b 0.13100 0.28900 0.53200 1.00000
Co9 Co 4 b 0.31800 0.29200 0.27700 1.00000
Co10 Co 4 b 0.18200 0.22900 0.72200 1.00000