# CIF file 
data_findsym-output
_audit_creation_method FINDSYM

_chemical_name_mineral 'Al13Os4'
_chemical_formula_sum 'Al13 Os4'

loop_
_publ_author_name
 'L.-E. Edshammar'
_journal_name_full_name
;
 Acta Chemica Scandinavica
;
_journal_volume 18
_journal_year 1964
_journal_page_first 2294
_journal_page_last 2302
_publ_Section_title
;
 The Crystal Structure of Os$_{4}$Al$_{13}$
;

_aflow_title 'Os$_{4}$Al$_{13}$ Structure'
_aflow_proto 'A13B4_mC34_12_b6i_2i'
_aflow_params 'a,b/a,c/a,\beta,x_{2},z_{2},x_{3},z_{3},x_{4},z_{4},x_{5},z_{5},x_{6},z_{6},x_{7},z_{7},x_{8},z_{8},x_{9},z_{9}'
_aflow_params_values '17.64,0.239682539683,0.440646258503,115.15,0.587,0.368,0.257,0.613,0.132,0.162,0.79,0.087,-0.086,0.432,0.409,0.194,0.294,0.2915,-0.0081,0.1947'
_aflow_Strukturbericht 'None'
_aflow_Pearson 'mC34'

_symmetry_space_group_name_H-M "C 1 2/m 1"
_symmetry_Int_Tables_number 12
 
_cell_length_a    17.64000
_cell_length_b    4.22800
_cell_length_c    7.77300
_cell_angle_alpha 90.00000
_cell_angle_beta  115.15000
_cell_angle_gamma 90.00000
 
loop_
_space_group_symop_id
_space_group_symop_operation_xyz
1 x,y,z
2 -x,y,-z
3 -x,-y,-z
4 x,-y,z
5 x+1/2,y+1/2,z
6 -x+1/2,y+1/2,-z
7 -x+1/2,-y+1/2,-z
8 x+1/2,-y+1/2,z
 
loop_
_atom_site_label
_atom_site_type_symbol
_atom_site_symmetry_multiplicity
_atom_site_Wyckoff_label
_atom_site_fract_x
_atom_site_fract_y
_atom_site_fract_z
_atom_site_occupancy
Al1 Al 2 b 0.00000 0.50000 0.00000 1.00000
Al2 Al 4 i 0.58700 0.00000 0.36800 1.00000
Al3 Al 4 i 0.25700 0.00000 0.61300 1.00000
Al4 Al 4 i 0.13200 0.00000 0.16200 1.00000
Al5 Al 4 i 0.79000 0.00000 0.08700 1.00000
Al6 Al 4 i -0.08600 0.00000 0.43200 1.00000
Al7 Al 4 i 0.40900 0.00000 0.19400 1.00000
Os1 Os 4 i 0.29400 0.00000 0.29150 1.00000
Os2 Os 4 i -0.00810 0.00000 0.19470 1.00000