# CIF file 
data_findsym-output
_audit_creation_method FINDSYM

_chemical_name_mineral 'Al13Fe4'
_chemical_formula_sum 'Al13 Fe4'

loop_
_publ_author_name
 'P. J. Black'
_journal_name_full_name
;
 Acta Cristallographica
;
_journal_volume 8
_journal_year 1955
_journal_page_first 43
_journal_page_last 48
_publ_Section_title
;
 The Structure of FeAl$_{3}$. I
;

_aflow_title 'Al$_{13}$Fe$_{4}$ Structure'
_aflow_proto 'A13B4_mC102_12_dg8i5j_4ij'
_aflow_params 'a,b/a,c/a,\beta,y_{2},x_{3},z_{3},x_{4},z_{4},x_{5},z_{5},x_{6},z_{6},x_{7},z_{7},x_{8},z_{8},x_{9},z_{9},x_{10},z_{10},x_{11},z_{11},x_{12},z_{12},x_{13},z_{13},x_{14},z_{14},x_{15},y_{15},z_{15},x_{16},y_{16},z_{16},x_{17},y_{17},z_{17},x_{18},y_{18},z_{18},x_{19},y_{19},z_{19},x_{20},y_{20},z_{20}'
_aflow_params_values '15.489,0.521860675318,0.805474853122,107.71667,0.244,0.064,0.173,0.322,0.277,0.235,0.539,0.081,0.582,0.231,-0.028,0.48,0.827,0.31,0.769,0.086,0.781,0.086,0.383,0.401,0.624,0.09,-0.011,0.4,-0.015,0.188,0.216,0.111,0.373,0.211,0.107,0.176,0.216,0.334,0.495,0.283,0.329,0.366,0.223,0.479,0.318,0.285,0.277'
_aflow_Strukturbericht 'None'
_aflow_Pearson 'mC102'

_symmetry_space_group_name_H-M "C 1 2/m 1"
_symmetry_Int_Tables_number 12
 
_cell_length_a    15.48900
_cell_length_b    8.08310
_cell_length_c    12.47600
_cell_angle_alpha 90.00000
_cell_angle_beta  107.71667
_cell_angle_gamma 90.00000
 
loop_
_space_group_symop_id
_space_group_symop_operation_xyz
1 x,y,z
2 -x,y,-z
3 -x,-y,-z
4 x,-y,z
5 x+1/2,y+1/2,z
6 -x+1/2,y+1/2,-z
7 -x+1/2,-y+1/2,-z
8 x+1/2,-y+1/2,z
 
loop_
_atom_site_label
_atom_site_type_symbol
_atom_site_symmetry_multiplicity
_atom_site_Wyckoff_label
_atom_site_fract_x
_atom_site_fract_y
_atom_site_fract_z
_atom_site_occupancy
Al1 Al 2 d 0.00000 0.50000 0.50000 1.00000
Al2 Al 4 g 0.00000 0.24400 0.00000 1.00000
Al3 Al 4 i 0.06400 0.00000 0.17300 1.00000
Al4 Al 4 i 0.32200 0.00000 0.27700 0.70000
Al5 Al 4 i 0.23500 0.00000 0.53900 1.00000
Al6 Al 4 i 0.08100 0.00000 0.58200 1.00000
Al7 Al 4 i 0.23100 0.00000 -0.02800 1.00000
Al8 Al 4 i 0.48000 0.00000 0.82700 1.00000
Al9 Al 4 i 0.31000 0.00000 0.76900 1.00000
Al10 Al 4 i 0.08600 0.00000 0.78100 1.00000
Fe1 Fe 4 i 0.08600 0.00000 0.38300 1.00000
Fe2 Fe 4 i 0.40100 0.00000 0.62400 1.00000
Fe3 Fe 4 i 0.09000 0.00000 -0.01100 1.00000
Fe4 Fe 4 i 0.40000 0.00000 -0.01500 1.00000
Al11 Al 8 j 0.18800 0.21600 0.11100 1.00000
Al12 Al 8 j 0.37300 0.21100 0.10700 1.00000
Al13 Al 8 j 0.17600 0.21600 0.33400 1.00000
Al14 Al 8 j 0.49500 0.28300 0.32900 1.00000
Al15 Al 8 j 0.36600 0.22300 0.47900 1.00000
Fe5 Fe 8 j 0.31800 0.28500 0.27700 1.00000