# CIF file 
data_findsym-output
_audit_creation_method FINDSYM

_chemical_name_mineral 'Morenosite'
_chemical_formula_sum 'H14 Ni O11 S'

loop_
_publ_author_name
 'H. Ptasiewicz-Bak'
 'I. Olovsson'
 'G. J. McIntyre'
_journal_name_full_name
;
 Acta Crystallographica Section B: Structural Science
;
_journal_volume 53
_journal_year 1997
_journal_page_first 325
_journal_page_last 336
_publ_Section_title
;
 Charge Density in Orthorhombic NiSO$_{4}$$\cdot$7H$_{2}$O at Room Temperature and 25 K
;

_aflow_title 'Morenosite (NiSO$_{4}$$\cdot$7H$_{2}$O, $H4_{12}$) Structure'
_aflow_proto 'A14BC11D_oP108_19_14a_a_11a_a'
_aflow_params 'a,b/a,c/a,x_{1},y_{1},z_{1},x_{2},y_{2},z_{2},x_{3},y_{3},z_{3},x_{4},y_{4},z_{4},x_{5},y_{5},z_{5},x_{6},y_{6},z_{6},x_{7},y_{7},z_{7},x_{8},y_{8},z_{8},x_{9},y_{9},z_{9},x_{10},y_{10},z_{10},x_{11},y_{11},z_{11},x_{12},y_{12},z_{12},x_{13},y_{13},z_{13},x_{14},y_{14},z_{14},x_{15},y_{15},z_{15},x_{16},y_{16},z_{16},x_{17},y_{17},z_{17},x_{18},y_{18},z_{18},x_{19},y_{19},z_{19},x_{20},y_{20},z_{20},x_{21},y_{21},z_{21},x_{22},y_{22},z_{22},x_{23},y_{23},z_{23},x_{24},y_{24},z_{24},x_{25},y_{25},z_{25},x_{26},y_{26},z_{26},x_{27},y_{27},z_{27}'
_aflow_params_values '6.706,1.75902177155,1.78183716075,0.109,0.7344,0.7161,0.875,0.74,0.6932,0.298,-0.0819,0.7675,0.251,0.0439,0.7498,0.689,-0.0769,0.7175,0.74,0.0473,0.6778,0.197,0.1238,0.5537,0.007,0.1119,0.48,-0.023,0.8655,0.3955,0.779,-0.0807,0.4437,0.319,0.7843,0.5251,0.396,-0.0866,0.4995,-0.05,-0.0782,-0.0187,-0.002,-0.0288,0.8664,0.04106,-0.07911,0.60442,0.42704,0.18381,0.57465,0.48169,0.35142,0.68668,0.69542,0.18889,0.70501,0.36068,0.17853,0.77191,0.00529,0.7607,0.66624,0.18986,-0.03077,0.74842,0.7752,-0.03247,0.66931,0.07373,0.08217,0.54556,0.8931,0.87229,0.46088,0.29961,0.8655,0.537,-0.0694,-0.01048,-0.0641,0.49094,0.2263,0.68354'
_aflow_Strukturbericht '$H4_{12}$'
_aflow_Pearson 'oP108'

_symmetry_space_group_name_H-M "P 21 21 21"
_symmetry_Int_Tables_number 19
 
_cell_length_a    6.70600
_cell_length_b    11.79600
_cell_length_c    11.94900
_cell_angle_alpha 90.00000
_cell_angle_beta  90.00000
_cell_angle_gamma 90.00000
 
loop_
_space_group_symop_id
_space_group_symop_operation_xyz
1 x,y,z
2 x+1/2,-y+1/2,-z
3 -x,y+1/2,-z+1/2
4 -x+1/2,-y,z+1/2
 
loop_
_atom_site_label
_atom_site_type_symbol
_atom_site_symmetry_multiplicity
_atom_site_Wyckoff_label
_atom_site_fract_x
_atom_site_fract_y
_atom_site_fract_z
_atom_site_occupancy
H1 H 4 a 0.10900 0.73440 0.71610 1.00000
H2 H 4 a 0.87500 0.74000 0.69320 1.00000
H3 H 4 a 0.29800 -0.08190 0.76750 1.00000
H4 H 4 a 0.25100 0.04390 0.74980 1.00000
H5 H 4 a 0.68900 -0.07690 0.71750 1.00000
H6 H 4 a 0.74000 0.04730 0.67780 1.00000
H7 H 4 a 0.19700 0.12380 0.55370 1.00000
H8 H 4 a 0.00700 0.11190 0.48000 1.00000
H9 H 4 a -0.02300 0.86550 0.39550 1.00000
H10 H 4 a 0.77900 -0.08070 0.44370 1.00000
H11 H 4 a 0.31900 0.78430 0.52510 1.00000
H12 H 4 a 0.39600 -0.08660 0.49950 1.00000
H13 H 4 a -0.05000 -0.07820 -0.01870 1.00000
H14 H 4 a -0.00200 -0.02880 0.86640 1.00000
Ni1 Ni 4 a 0.04106 -0.07911 0.60442 1.00000
O1 O 4 a 0.42704 0.18381 0.57465 1.00000
O2 O 4 a 0.48169 0.35142 0.68668 1.00000
O3 O 4 a 0.69542 0.18889 0.70501 1.00000
O4 O 4 a 0.36068 0.17853 0.77191 1.00000
O5 O 4 a 0.00529 0.76070 0.66624 1.00000
O6 O 4 a 0.18986 -0.03077 0.74842 1.00000
O7 O 4 a 0.77520 -0.03247 0.66931 1.00000
O8 O 4 a 0.07373 0.08217 0.54556 1.00000
O9 O 4 a 0.89310 0.87229 0.46088 1.00000
O10 O 4 a 0.29961 0.86550 0.53700 1.00000
O11 O 4 a -0.06940 -0.01048 -0.06410 1.00000
S1 S 4 a 0.49094 0.22630 0.68354 1.00000