# CIF file 
data_findsym-output
_audit_creation_method FINDSYM

_chemical_name_mineral 'H16Li2Mg'
_chemical_formula_sum 'H16 Li2 Mg'

loop_
_publ_author_name
 'Y. Sun'
 'J. Lv'
 'Y. Xie'
 'H. Liu'
 'Y. Ma'
_journal_name_full_name
;
 Physical Review Letters
;
_journal_volume 123
_journal_year 2019
_journal_page_first 097001
_journal_page_last 097001
_publ_Section_title
;
 Route to a Superconducting Phase above Room Temperature in Electron-Doped Hydride Compounds under High Pressure
;

_aflow_title 'Predicted Li$_{2}$MgH$_{16}$ 300~GPa Structure'
_aflow_proto 'A16B2C_hP19_164_2d2i_d_b'
_aflow_params 'a,c/a,z_{2},z_{3},z_{4},x_{5},z_{5},x_{6},z_{6}'
_aflow_params_values '2.79596,1.9003812644,0.57451,0.39139,0.83626,0.17157,0.0797,0.1644,0.23653'
_aflow_Strukturbericht 'None'
_aflow_Pearson 'hP19'

_symmetry_space_group_name_H-M "P -3 2/m 1"
_symmetry_Int_Tables_number 164
 
_cell_length_a    2.79596
_cell_length_b    2.79596
_cell_length_c    5.31339
_cell_angle_alpha 90.00000
_cell_angle_beta  90.00000
_cell_angle_gamma 120.00000
 
loop_
_space_group_symop_id
_space_group_symop_operation_xyz
1 x,y,z
2 -y,x-y,z
3 -x+y,-x,z
4 x-y,-y,-z
5 y,x,-z
6 -x,-x+y,-z
7 -x,-y,-z
8 y,-x+y,-z
9 x-y,x,-z
10 -x+y,y,z
11 -y,-x,z
12 x,x-y,z
 
loop_
_atom_site_label
_atom_site_type_symbol
_atom_site_symmetry_multiplicity
_atom_site_Wyckoff_label
_atom_site_fract_x
_atom_site_fract_y
_atom_site_fract_z
_atom_site_occupancy
Mg1 Mg 1 b 0.00000 0.00000 0.50000 1.00000
H1 H 2 d 0.33333 0.66667 0.57451 1.00000
H2 H 2 d 0.33333 0.66667 0.39139 1.00000
Li1 Li 2 d 0.33333 0.66667 0.83626 1.00000
H3 H 6 i 0.17157 0.82843 0.07970 1.00000
H4 H 6 i 0.16440 0.83560 0.23653 1.00000