# CIF file 
data_findsym-output
_audit_creation_method FINDSYM

_chemical_name_mineral 'Topaz'
_chemical_formula_sum 'Al2 F2 O4 Si'

loop_
_publ_author_name
 'K. Komatsu'
 'T. Kuribayashi'
 'Y. Kudoh'
_journal_name_full_name
;
 Journal of Mineralogical and Petrological Sciences
;
_journal_volume 98
_journal_year 2003
_journal_page_first 167
_journal_page_last 180
_publ_Section_title
;
 Effect of temperature and pressure on the crystal structure of topaz, Al$_{2}$SiO$_{4}$(OH,F)$_{2}$
;

_aflow_title 'Topaz (Al$_{2}$SiO$_{4}$F$_{2}$, $S0_{5}$) Structure'
_aflow_proto 'A2B2C4D_oP36_62_d_d_2cd_c'
_aflow_params 'a,b/a,c/a,x_{1},z_{1},x_{2},z_{2},x_{3},z_{3},x_{4},y_{4},z_{4},x_{5},y_{5},z_{5},x_{6},y_{6},z_{6}'
_aflow_params_values '8.7935,0.954762040143,0.528674589185,0.468,0.7957,0.2436,0.4566,0.55945,0.1022,0.63102,0.5824,0.40358,0.75265,0.55741,0.0981,0.4893,0.5923,0.711'
_aflow_Strukturbericht '$S0_{5}$'
_aflow_Pearson 'oP36'

_symmetry_space_group_name_H-M "P 21/n 21/m 21/a"
_symmetry_Int_Tables_number 62
 
_cell_length_a    8.79350
_cell_length_b    8.39570
_cell_length_c    4.64890
_cell_angle_alpha 90.00000
_cell_angle_beta  90.00000
_cell_angle_gamma 90.00000
 
loop_
_space_group_symop_id
_space_group_symop_operation_xyz
1 x,y,z
2 x+1/2,-y+1/2,-z+1/2
3 -x,y+1/2,-z
4 -x+1/2,-y,z+1/2
5 -x,-y,-z
6 -x+1/2,y+1/2,z+1/2
7 x,-y+1/2,z
8 x+1/2,y,-z+1/2
 
loop_
_atom_site_label
_atom_site_type_symbol
_atom_site_symmetry_multiplicity
_atom_site_Wyckoff_label
_atom_site_fract_x
_atom_site_fract_y
_atom_site_fract_z
_atom_site_occupancy
O1 O 4 c 0.46800 0.25000 0.79570 1.00000
O2 O 4 c 0.24360 0.25000 0.45660 1.00000
Si1 Si 4 c 0.55945 0.25000 0.10220 1.00000
Al1 Al 8 d 0.63102 0.58240 0.40358 1.00000
F1 F 8 d 0.75265 0.55741 0.09810 1.00000
O3 O 8 d 0.48930 0.59230 0.71100 1.00000