# CIF file 
data_findsym-output
_audit_creation_method FINDSYM

_chemical_name_mineral 'Ag2O2Pb'
_chemical_formula_sum 'Ag2 O2 Pb'

loop_
_publ_author_name
 'A. Bystr\"{o}m'
 'L. Evers'
_journal_name_full_name
;
 Acta Chemica Scandinavica
;
_journal_volume 4
_journal_year 1950
_journal_page_first 613
_journal_page_last 627
_publ_Section_title
;
 The Crystal Structures of Ag$_{2}$PbO$_{2}$ and Ag5Pb$_{2}$O$_{6}$
;

_aflow_title 'Ag$_{2}$PbO$_{2}$ Structure'
_aflow_proto 'A2B2C_mC20_15_ad_f_e'
_aflow_params 'a,b/a,c/a,\beta,y_{3},x_{4},y_{4},z_{4}'
_aflow_params_values '8.65,1.00751445087,0.703121387283,130.86424,0.625,0.804,0.445,0.865'
_aflow_Strukturbericht 'None'
_aflow_Pearson 'mC20'

_symmetry_space_group_name_H-M "C 1 2/c 1"
_symmetry_Int_Tables_number 15
 
_cell_length_a    8.65000
_cell_length_b    8.71500
_cell_length_c    6.08200
_cell_angle_alpha 90.00000
_cell_angle_beta  130.86424
_cell_angle_gamma 90.00000
 
loop_
_space_group_symop_id
_space_group_symop_operation_xyz
1 x,y,z
2 -x,y,-z+1/2
3 -x,-y,-z
4 x,-y,z+1/2
5 x+1/2,y+1/2,z
6 -x+1/2,y+1/2,-z+1/2
7 -x+1/2,-y+1/2,-z
8 x+1/2,-y+1/2,z+1/2
 
loop_
_atom_site_label
_atom_site_type_symbol
_atom_site_symmetry_multiplicity
_atom_site_Wyckoff_label
_atom_site_fract_x
_atom_site_fract_y
_atom_site_fract_z
_atom_site_occupancy
Ag1 Ag 4 a 0.00000 0.00000 0.00000 1.00000
Ag2 Ag 4 d 0.25000 0.25000 0.50000 1.00000
Pb1 Pb 4 e 0.00000 0.62500 0.25000 1.00000
O1 O 8 f 0.80400 0.44500 0.86500 1.00000