# CIF file 
data_findsym-output
_audit_creation_method FINDSYM

_chemical_name_mineral 'Ce2O2S'
_chemical_formula_sum 'Ce2 O2 S'

loop_
_publ_author_name
 'W. H. Zachariasen'
_journal_name_full_name
;
 Acta Cristallographica
;
_journal_volume 2
_journal_year 1949
_journal_page_first 60
_journal_page_last 62
_publ_Section_title
;
 Crystal chemical studies of the $5f$-series of elements. VII. The crystal structure of Ce$_{2}$O$_{2}$S, La$_{2}$O$_{2}$S and Pu$_{2}$O$_{2}$S
;

_aflow_title 'Ce$_{2}$O$_{2}$S Structure'
_aflow_proto 'A2B2C_hP5_164_d_d_a'
_aflow_params 'a,c/a,z_{2},z_{3}'
_aflow_params_values '4.0,1.705,0.29,0.64'
_aflow_Strukturbericht 'None'
_aflow_Pearson 'hP5'

_symmetry_space_group_name_H-M "P -3 2/m 1"
_symmetry_Int_Tables_number 164
 
_cell_length_a    4.00000
_cell_length_b    4.00000
_cell_length_c    6.82000
_cell_angle_alpha 90.00000
_cell_angle_beta  90.00000
_cell_angle_gamma 120.00000
 
loop_
_space_group_symop_id
_space_group_symop_operation_xyz
1 x,y,z
2 -y,x-y,z
3 -x+y,-x,z
4 x-y,-y,-z
5 y,x,-z
6 -x,-x+y,-z
7 -x,-y,-z
8 y,-x+y,-z
9 x-y,x,-z
10 -x+y,y,z
11 -y,-x,z
12 x,x-y,z
 
loop_
_atom_site_label
_atom_site_type_symbol
_atom_site_symmetry_multiplicity
_atom_site_Wyckoff_label
_atom_site_fract_x
_atom_site_fract_y
_atom_site_fract_z
_atom_site_occupancy
S1 S 1 a 0.00000 0.00000 0.00000 1.00000
Ce1 Ce 2 d 0.33333 0.66667 0.29000 1.00000
O1 O 2 d 0.33333 0.66667 0.64000 1.00000