# CIF file 
data_findsym-output
_audit_creation_method FINDSYM

_chemical_name_mineral 'W\"{u}lfingite'
_chemical_formula_sum 'H2 O2 Zn'

loop_
_publ_author_name
 'R. Stahl'
 'C. Jung'
 'H. D. Lutz'
 'W. Kockelmann'
 'H. Jacobs'
_journal_name_full_name
;
 Zeitschrift fur Anorganische und Allgemeine Chemie
;
_journal_volume 624
_journal_year 1998
_journal_page_first 1130
_journal_page_last 1136
_publ_Section_title
;
 Kristallstrukturen und Wasserstoffbr\"{u}ckenbindungen bei $\beta$-Be(OH)$_{2}$ und $\epsilon$-Zn(OH)$_{2}$
;

# Found in The American Mineralogist Crystal Structure Database, 2003

_aflow_title 'W\"{u}lfingite ($\epsilon$-Zn(OH)$_{2}$, $C31$) Structure'
_aflow_proto 'A2B2C_oP20_19_2a_2a_a'
_aflow_params 'a,b/a,c/a,x_{1},y_{1},z_{1},x_{2},y_{2},z_{2},x_{3},y_{3},z_{3},x_{4},y_{4},z_{4},x_{5},y_{5},z_{5}'
_aflow_params_values '4.905,1.04852191641,1.72742099898,0.501,0.36,0.857,0.28,0.79,0.17,0.1155,0.1256,0.0795,0.167,0.3172,0.7198,0.07096,0.64832,0.6242'
_aflow_Strukturbericht '$C31$'
_aflow_Pearson 'oP20'

_symmetry_space_group_name_H-M "P 21 21 21"
_symmetry_Int_Tables_number 19
 
_cell_length_a    4.90500
_cell_length_b    5.14300
_cell_length_c    8.47300
_cell_angle_alpha 90.00000
_cell_angle_beta  90.00000
_cell_angle_gamma 90.00000
 
loop_
_space_group_symop_id
_space_group_symop_operation_xyz
1 x,y,z
2 x+1/2,-y+1/2,-z
3 -x,y+1/2,-z+1/2
4 -x+1/2,-y,z+1/2
 
loop_
_atom_site_label
_atom_site_type_symbol
_atom_site_symmetry_multiplicity
_atom_site_Wyckoff_label
_atom_site_fract_x
_atom_site_fract_y
_atom_site_fract_z
_atom_site_occupancy
H1 H 4 a 0.50100 0.36000 0.85700 1.00000
H2 H 4 a 0.28000 0.79000 0.17000 1.00000
O1 O 4 a 0.11550 0.12560 0.07950 1.00000
O2 O 4 a 0.16700 0.31720 0.71980 1.00000
Zn1 Zn 4 a 0.07096 0.64832 0.62420 1.00000