# CIF file 
data_findsym-output
_audit_creation_method FINDSYM

_chemical_name_mineral 'Analcime'
_chemical_formula_sum 'Al2 (H2O)2 Na3 O12 Si4'

loop_
_publ_author_name
 'F. Mazzi'
 'E. Galli'
_journal_name_full_name
;
 American Mineralogist
;
_journal_volume 63
_journal_year 1978
_journal_page_first 448
_journal_page_last 460
_publ_Section_title
;
 Is each analcime different?
;

# Found in The crystal structure of natural monoclinic analcime (NaAlSi$_{2}$O$_{6}$$\cdot$H$_{2}$O), 1988

_aflow_title 'Analcime (NaAlSi$_{2}$O$_{6}$$\cdot$H$_{2}$O, $S6_{1}$) Structure'
_aflow_proto 'A2B2C3D12E4_tI184_142_f_f_be_3g_g'
_aflow_params 'a,c/a,x_{2},x_{3},x_{4},x_{5},y_{5},z_{5},x_{6},y_{6},z_{6},x_{7},y_{7},z_{7},x_{8},y_{8},z_{8}'
_aflow_params_values '13.723,0.997303796546,0.1242,0.1631,0.3805,0.105,0.3705,0.2186,0.2218,0.1028,0.3633,0.3631,0.2182,0.1051,0.1264,0.1617,0.4118'
_aflow_Strukturbericht '$S6_{1}$'
_aflow_Pearson 'tI184'

_symmetry_space_group_name_H-M "I 41/a 2/c 2/d (origin choice 2)"
_symmetry_Int_Tables_number 142
 
_cell_length_a    13.72300
_cell_length_b    13.72300
_cell_length_c    13.68600
_cell_angle_alpha 90.00000
_cell_angle_beta  90.00000
_cell_angle_gamma 90.00000
 
loop_
_space_group_symop_id
_space_group_symop_operation_xyz
1 x,y,z
2 x+1/2,-y+1/2,-z
3 -x+1/2,y,-z
4 -x,-y+1/2,z
5 -y+1/4,-x+1/4,-z+1/4
6 -y+1/4,x+3/4,z+1/4
7 y+3/4,-x+3/4,z+1/4
8 y+3/4,x+1/4,-z+1/4
9 -x,-y,-z
10 -x,y,z+1/2
11 x,-y+1/2,z+1/2
12 x,y+1/2,-z
13 y+1/4,x+1/4,z+1/4
14 y+3/4,-x+1/4,-z+3/4
15 -y+1/4,x+1/4,-z+3/4
16 -y+3/4,-x+1/4,z+1/4
17 x+1/2,y+1/2,z+1/2
18 x,-y,-z+1/2
19 -x,y+1/2,-z+1/2
20 -x+1/2,-y,z+1/2
21 -y+3/4,-x+3/4,-z+3/4
22 -y+3/4,x+1/4,z+3/4
23 y+1/4,-x+1/4,z+3/4
24 y+1/4,x+3/4,-z+3/4
25 -x+1/2,-y+1/2,-z+1/2
26 -x+1/2,y+1/2,z
27 x+1/2,-y,z
28 x+1/2,y,-z+1/2
29 y+3/4,x+3/4,z+3/4
30 y+1/4,-x+3/4,-z+1/4
31 -y+3/4,x+3/4,-z+1/4
32 -y+1/4,-x+3/4,z+3/4
 
loop_
_atom_site_label
_atom_site_type_symbol
_atom_site_symmetry_multiplicity
_atom_site_Wyckoff_label
_atom_site_fract_x
_atom_site_fract_y
_atom_site_fract_z
_atom_site_occupancy
Na1 Na 8 b 0.00000 0.25000 0.12500 0.23000
Na2 Na 16 e 0.12420 0.00000 0.25000 0.82000
Al1 Al 16 f 0.16310 0.41310 0.12500 1.00000
H2O1 H2O 16 f 0.38050 0.63050 0.12500 1.00000
O1 O 32 g 0.10500 0.37050 0.21860 1.00000
O2 O 32 g 0.22180 0.10280 0.36330 1.00000
O3 O 32 g 0.36310 0.21820 0.10510 1.00000
Si1 Si 32 g 0.12640 0.16170 0.41180 1.00000
