# CIF file 
data_findsym-output
_audit_creation_method FINDSYM

_chemical_name_mineral 'Au2Nb3'
_chemical_formula_sum 'Au2 Nb3'

loop_
_publ_author_name
 'K. Schubert'
 'T. R. Anantharaman'
 'H. O. K. Ata'
 'H. G. Meissner'
 'M. P\"{o}tzschke'
 'W. Rossteutscher'
 'E. Stolz'
_journal_name_full_name
;
 Naturwissenschaften
;
_journal_volume 47
_journal_year 1960
_journal_page_first 512
_journal_page_last 512
_publ_Section_title
;
 Einige strukturelle Ergebnisse an metallischen Phasen (6)
;

# Found in The Crystal Structures of Os$_{2}$Al$_{3}$ and OsAl$_{2}$, 1965

_aflow_title 'Au$_{2}$Nb$_{3}$ Structure'
_aflow_proto 'A2B3_tI10_139_e_ae'
_aflow_params 'a,c/a,z_{2},z_{3}'
_aflow_params_values '3.36301,4.49555309083,0.2,0.4'
_aflow_Strukturbericht 'None'
_aflow_Pearson 'tI10'

_symmetry_space_group_name_H-M "I 4/m 2/m 2/m"
_symmetry_Int_Tables_number 139
 
_cell_length_a    3.36301
_cell_length_b    3.36301
_cell_length_c    15.11859
_cell_angle_alpha 90.00000
_cell_angle_beta  90.00000
_cell_angle_gamma 90.00000
 
loop_
_space_group_symop_id
_space_group_symop_operation_xyz
1 x,y,z
2 x,-y,-z
3 -x,y,-z
4 -x,-y,z
5 -y,-x,-z
6 -y,x,z
7 y,-x,z
8 y,x,-z
9 -x,-y,-z
10 -x,y,z
11 x,-y,z
12 x,y,-z
13 y,x,z
14 y,-x,-z
15 -y,x,-z
16 -y,-x,z
17 x+1/2,y+1/2,z+1/2
18 x+1/2,-y+1/2,-z+1/2
19 -x+1/2,y+1/2,-z+1/2
20 -x+1/2,-y+1/2,z+1/2
21 -y+1/2,-x+1/2,-z+1/2
22 -y+1/2,x+1/2,z+1/2
23 y+1/2,-x+1/2,z+1/2
24 y+1/2,x+1/2,-z+1/2
25 -x+1/2,-y+1/2,-z+1/2
26 -x+1/2,y+1/2,z+1/2
27 x+1/2,-y+1/2,z+1/2
28 x+1/2,y+1/2,-z+1/2
29 y+1/2,x+1/2,z+1/2
30 y+1/2,-x+1/2,-z+1/2
31 -y+1/2,x+1/2,-z+1/2
32 -y+1/2,-x+1/2,z+1/2
 
loop_
_atom_site_label
_atom_site_type_symbol
_atom_site_symmetry_multiplicity
_atom_site_Wyckoff_label
_atom_site_fract_x
_atom_site_fract_y
_atom_site_fract_z
_atom_site_occupancy
Nb1 Nb 2 a 0.00000 0.00000 0.00000 1.00000
Au1 Au 4 e 0.00000 0.00000 0.20000 1.00000
Nb2 Nb 4 e 0.00000 0.00000 0.40000 1.00000