# CIF file 
data_findsym-output
_audit_creation_method FINDSYM

_chemical_name_mineral 'Cl2Hg3O2'
_chemical_formula_sum 'Cl2 Hg3 O2'

loop_
_publ_author_name
 'S. \v{S}\\'{c}avni\\'{c}ar'
_journal_name_full_name
;
 Acta Cristallographica
;
_journal_volume 8
_journal_year 1955
_journal_page_first 379
_journal_page_last 383
_publ_Section_title
;
 The crystal structure of trimercuric oxychloride, HgCl$_{2}$$\cdot$2HgO
;

_aflow_title 'HgCl$_{2}$$\cdot$2HgO Structure'
_aflow_proto 'A2B3C2_mP14_14_e_ae_e'
_aflow_params 'a,b/a,c/a,\beta,x_{2},y_{2},z_{2},x_{3},y_{3},z_{3},x_{4},y_{4},z_{4}'
_aflow_params_values '7.16,0.959497206704,0.958100558659,126.16667,0.185,0.62,0.233,0.412,0.365,0.151,0.397,0.115,0.331'
_aflow_Strukturbericht 'None'
_aflow_Pearson 'mP14'

_symmetry_space_group_name_H-M "P 1 21/c 1"
_symmetry_Int_Tables_number 14
 
_cell_length_a    7.16000
_cell_length_b    6.87000
_cell_length_c    6.86000
_cell_angle_alpha 90.00000
_cell_angle_beta  126.16667
_cell_angle_gamma 90.00000
 
loop_
_space_group_symop_id
_space_group_symop_operation_xyz
1 x,y,z
2 -x,y+1/2,-z+1/2
3 -x,-y,-z
4 x,-y+1/2,z+1/2
 
loop_
_atom_site_label
_atom_site_type_symbol
_atom_site_symmetry_multiplicity
_atom_site_Wyckoff_label
_atom_site_fract_x
_atom_site_fract_y
_atom_site_fract_z
_atom_site_occupancy
Hg1 Hg 2 a 0.00000 0.00000 0.00000 1.00000
Cl1 Cl 4 e 0.18500 0.62000 0.23300 1.00000
Hg2 Hg 4 e 0.41200 0.36500 0.15100 1.00000
O1 O 4 e 0.39700 0.11500 0.33100 1.00000