# CIF file 
data_findsym-output
_audit_creation_method FINDSYM

_chemical_name_mineral 'Arcanite'
_chemical_formula_sum 'K2 O4 S'

loop_
_publ_author_name
 'J. A. {McGinnety}'
_journal_name_full_name
;
 Acta Crystallographica Section B: Structural Science
;
_journal_volume 28
_journal_year 1972
_journal_page_first 2845
_journal_page_last 2852
_publ_Section_title
;
 Redetermination of the structures of potassium sulphate and potassium chromate: the effect of electrostatic crystal forces upon observed bond lengths
;

# Found in The American Mineralogist Crystal Structure Database, 2003

_aflow_title 'Arcanite (K$_{2}$SO$_{4}$, $H1_{6}$) Structure'
_aflow_proto 'A2B4C_oP28_62_2c_2cd_c'
_aflow_params 'a,b/a,c/a,x_{1},z_{1},x_{2},z_{2},x_{3},z_{3},x_{4},z_{4},x_{5},z_{5},x_{6},y_{6},z_{6}'
_aflow_params_values '7.476,0.770866773676,1.34711075441,0.82623,0.21062,0.51104,0.20406,0.4621,-0.0834,0.2037,0.0582,0.26702,-0.08029,0.1991,0.0412,0.8522'
_aflow_Strukturbericht '$H1_{6}$'
_aflow_Pearson 'oP28'

_symmetry_space_group_name_H-M "P 21/n 21/m 21/a"
_symmetry_Int_Tables_number 62
 
_cell_length_a    7.47600
_cell_length_b    5.76300
_cell_length_c    10.07100
_cell_angle_alpha 90.00000
_cell_angle_beta  90.00000
_cell_angle_gamma 90.00000
 
loop_
_space_group_symop_id
_space_group_symop_operation_xyz
1 x,y,z
2 x+1/2,-y+1/2,-z+1/2
3 -x,y+1/2,-z
4 -x+1/2,-y,z+1/2
5 -x,-y,-z
6 -x+1/2,y+1/2,z+1/2
7 x,-y+1/2,z
8 x+1/2,y,-z+1/2
 
loop_
_atom_site_label
_atom_site_type_symbol
_atom_site_symmetry_multiplicity
_atom_site_Wyckoff_label
_atom_site_fract_x
_atom_site_fract_y
_atom_site_fract_z
_atom_site_occupancy
K1 K 4 c 0.82623 0.25000 0.21062 1.00000
K2 K 4 c 0.51104 0.25000 0.20406 1.00000
O1 O 4 c 0.46210 0.25000 -0.08340 1.00000
O2 O 4 c 0.20370 0.25000 0.05820 1.00000
S1 S 4 c 0.26702 0.25000 -0.08029 1.00000
O3 O 8 d 0.19910 0.04120 0.85220 1.00000