# CIF file 
data_findsym-output
_audit_creation_method FINDSYM

_chemical_name_mineral 'Cu2O4Se'
_chemical_formula_sum 'Cu2 O4 Se'

loop_
_publ_author_name
 'H. Effenberger'
 'F. Pertlik'
_journal_name_full_name
;
 Monatshefte f{\"u}r Chemie - Chemical Monthly
;
_journal_volume 117
_journal_year 1986
_journal_page_first 887
_journal_page_last 896
_publ_Section_title
;
 Die Kristallstrukturen der Kupfer(II)-oxo-selenite Cu$_{2}$O(SeO$_{3}$) (kubisch und monoklin) und Cu$_{4}$O(SeO$_{3}$)$_{3}$ (monoklin und triklin)
;

# Found in Magnon spectrum of the helimagnetic insulator Cu$_{2}$OSeO$_{3}$, 2016

_aflow_title 'Cubic Cu$_{2}$OSeO$_{3}$ Structure'
_aflow_proto 'A2B4C_cP56_198_ab_2a2b_2a'
_aflow_params 'a,x_{1},x_{2},x_{3},x_{4},x_{5},x_{6},y_{6},z_{6},x_{7},y_{7},z_{7},x_{8},y_{8},z_{8}'
_aflow_params_values '8.925,0.886,0.0105,0.7621,0.459,0.2113,0.1335,0.1211,0.8719,0.2699,0.4834,0.4706,0.271,0.1892,0.0313'
_aflow_Strukturbericht 'None'
_aflow_Pearson 'cP56'

_symmetry_space_group_name_H-M "P 21 3"
_symmetry_Int_Tables_number 198
 
_cell_length_a    8.92500
_cell_length_b    8.92500
_cell_length_c    8.92500
_cell_angle_alpha 90.00000
_cell_angle_beta  90.00000
_cell_angle_gamma 90.00000
 
loop_
_space_group_symop_id
_space_group_symop_operation_xyz
1 x,y,z
2 x+1/2,-y+1/2,-z
3 -x,y+1/2,-z+1/2
4 -x+1/2,-y,z+1/2
5 y,z,x
6 y+1/2,-z+1/2,-x
7 -y,z+1/2,-x+1/2
8 -y+1/2,-z,x+1/2
9 z,x,y
10 z+1/2,-x+1/2,-y
11 -z,x+1/2,-y+1/2
12 -z+1/2,-x,y+1/2
 
loop_
_atom_site_label
_atom_site_type_symbol
_atom_site_symmetry_multiplicity
_atom_site_Wyckoff_label
_atom_site_fract_x
_atom_site_fract_y
_atom_site_fract_z
_atom_site_occupancy
Cu1 Cu 4 a 0.88600 0.88600 0.88600 1.00000
O1 O 4 a 0.01050 0.01050 0.01050 1.00000
O2 O 4 a 0.76210 0.76210 0.76210 1.00000
Se1 Se 4 a 0.45900 0.45900 0.45900 1.00000
Se2 Se 4 a 0.21130 0.21130 0.21130 1.00000
Cu2 Cu 12 b 0.13350 0.12110 0.87190 1.00000
O3 O 12 b 0.26990 0.48340 0.47060 1.00000
O4 O 12 b 0.27100 0.18920 0.03130 1.00000