# CIF file 
data_findsym-output
_audit_creation_method FINDSYM

_chemical_name_mineral 'Hemimorphite'
_chemical_formula_sum 'H2 O5 Si Zn2'

loop_
_publ_author_name
 'R. J. Hill'
 'G. V. Gibbs'
 'J. R. Craig'
 'F. K. Ross'
 'J. M. Williams'
_journal_name_full_name
;
 Zeitschrift f{\"u}r Kristallographie - Crystalline Materials
;
_journal_volume 146
_journal_year 1977
_journal_page_first 241
_journal_page_last 259
_publ_Section_title
;
 A neutron-diffraction study of hemimorphite
;

# Found in The American Mineralogist Crystal Structure Database, 2003

_aflow_title 'Hemimorphite (Zn$_{4}$Si$_{2}$O$_{7}$(OH)$_{2}\cdot$H$_{2}$O, $S2_{2}$) Structure'
_aflow_proto 'A2B5CD2_oI40_44_2c_abcde_d_e'
_aflow_params 'a,b/a,c/a,z_{1},z_{2},x_{3},z_{3},x_{4},z_{4},x_{5},z_{5},y_{6},z_{6},y_{7},z_{7},x_{8},y_{8},z_{8},x_{9},y_{9},z_{9}'
_aflow_params_values '8.367,1.28241902713,0.611330225887,0.5912,0.0195,0.374,0.19,0.4256,0.643,0.305,0.041,0.1669,0.1938,0.1465,0.5076,0.1602,0.2055,0.6362,0.2047,0.1613,0.0'
_aflow_Strukturbericht '$S2_{2}$'
_aflow_Pearson 'oI40'

_symmetry_space_group_name_H-M "I m m 2"
_symmetry_Int_Tables_number 44
 
_cell_length_a    8.36700
_cell_length_b    10.73000
_cell_length_c    5.11500
_cell_angle_alpha 90.00000
_cell_angle_beta  90.00000
_cell_angle_gamma 90.00000
 
loop_
_space_group_symop_id
_space_group_symop_operation_xyz
1 x,y,z
2 -x,-y,z
3 -x,y,z
4 x,-y,z
5 x+1/2,y+1/2,z+1/2
6 -x+1/2,-y+1/2,z+1/2
7 -x+1/2,y+1/2,z+1/2
8 x+1/2,-y+1/2,z+1/2
 
loop_
_atom_site_label
_atom_site_type_symbol
_atom_site_symmetry_multiplicity
_atom_site_Wyckoff_label
_atom_site_fract_x
_atom_site_fract_y
_atom_site_fract_z
_atom_site_occupancy
O1 O 2 a 0.00000 0.00000 0.59120 1.00000
O2 O 2 b 0.00000 0.50000 0.01950 1.00000
H1 H 4 c 0.37400 0.00000 0.19000 1.00000
H2 H 4 c 0.42560 0.00000 0.64300 1.00000
O3 O 4 c 0.30500 0.00000 0.04100 1.00000
O4 O 4 d 0.00000 0.16690 0.19380 1.00000
Si1 Si 4 d 0.00000 0.14650 0.50760 1.00000
O5 O 8 e 0.16020 0.20550 0.63620 1.00000
Zn1 Zn 8 e 0.20470 0.16130 0.00000 1.00000