# CIF file 
data_findsym-output
_audit_creation_method FINDSYM

_chemical_name_mineral 'Ca2O5U'
_chemical_formula_sum 'Ca2 O5 U'

loop_
_publ_author_name
 'B. O. Loopstra'
 'H. M. Rietveld'
_journal_name_full_name
;
 Acta Crystallographica Section B: Structural Science
;
_journal_volume 25
_journal_year 1969
_journal_page_first 787
_journal_page_last 791
_publ_Section_title
;
 The structure of some alkaline-earth metal uranates
;

_aflow_title 'Ca$_{2}$UO$_{5}$ Structure'
_aflow_proto 'A2B5C_mP32_14_2e_5e_ab'
_aflow_params 'a,b/a,c/a,\beta,x_{3},y_{3},z_{3},x_{4},y_{4},z_{4},x_{5},y_{5},z_{5},x_{6},y_{6},z_{6},x_{7},y_{7},z_{7},x_{8},y_{8},z_{8},x_{9},y_{9},z_{9}'
_aflow_params_values '7.9137,0.687529221477,1.44663052681,108.803,0.1592,0.0621,0.32,0.3462,-0.0015,0.6414,0.4447,0.3202,0.3267,0.8802,0.2831,0.3532,0.6197,0.3043,0.072,0.0163,0.261,0.1295,0.2507,0.1873,-0.0047'
_aflow_Strukturbericht 'None'
_aflow_Pearson 'mP32'

_symmetry_space_group_name_H-M "P 1 21/c 1"
_symmetry_Int_Tables_number 14
 
_cell_length_a    7.91370
_cell_length_b    5.44090
_cell_length_c    11.44820
_cell_angle_alpha 90.00000
_cell_angle_beta  108.80300
_cell_angle_gamma 90.00000
 
loop_
_space_group_symop_id
_space_group_symop_operation_xyz
1 x,y,z
2 -x,y+1/2,-z+1/2
3 -x,-y,-z
4 x,-y+1/2,z+1/2
 
loop_
_atom_site_label
_atom_site_type_symbol
_atom_site_symmetry_multiplicity
_atom_site_Wyckoff_label
_atom_site_fract_x
_atom_site_fract_y
_atom_site_fract_z
_atom_site_occupancy
U1 U 2 a 0.00000 0.00000 0.00000 1.00000
U2 U 2 b 0.50000 0.00000 0.00000 1.00000
Ca1 Ca 4 e 0.15920 0.06210 0.32000 1.00000
Ca2 Ca 4 e 0.34620 -0.00150 0.64140 1.00000
O1 O 4 e 0.44470 0.32020 0.32670 1.00000
O2 O 4 e 0.88020 0.28310 0.35320 1.00000
O3 O 4 e 0.61970 0.30430 0.07200 1.00000
O4 O 4 e 0.01630 0.26100 0.12950 1.00000
O5 O 4 e 0.25070 0.18730 -0.00470 1.00000