# CIF file 
data_findsym-output
_audit_creation_method FINDSYM

_chemical_name_mineral 'Kyanite'
_chemical_formula_sum 'Al2 O5 Si'

loop_
_publ_author_name
 'H. Yang'
 'R. T. Downs'
 'L. W. Finger'
 'R. M. Hazen'
 'C. T. Prewitt'
_journal_name_full_name
;
 American Mineralogist
;
_journal_volume 82
_journal_year 1997
_journal_page_first 467
_journal_page_last 474
_publ_Section_title
;
 Compressibility and crystal structure of kyanite, Al$_{2}$SiO$_{5}$, at high pressure
;

_aflow_title 'Kyanite (Al$_{2}$SiO$_{5}$, $S0_{1}$) Structure'
_aflow_proto 'A2B5C_aP32_2_4i_10i_2i'
_aflow_params 'a,b/a,c/a,\alpha,\beta,\gamma,x_{1},y_{1},z_{1},x_{2},y_{2},z_{2},x_{3},y_{3},z_{3},x_{4},y_{4},z_{4},x_{5},y_{5},z_{5},x_{6},y_{6},z_{6},x_{7},y_{7},z_{7},x_{8},y_{8},z_{8},x_{9},y_{9},z_{9},x_{10},y_{10},z_{10},x_{11},y_{11},z_{11},x_{12},y_{12},z_{12},x_{13},y_{13},z_{13},x_{14},y_{14},z_{14},x_{15},y_{15},z_{15},x_{16},y_{16},z_{16}'
_aflow_params_values '7.12,1.10223314607,0.782837078652,89.974,101.177,106.0,0.32533,0.70412,0.45812,0.2974,0.69882,0.9504,0.0998,0.38615,0.64043,0.11205,0.9175,0.16469,0.10933,0.14685,0.12866,0.12287,0.68535,0.18113,0.27507,0.45443,0.95474,0.28353,0.9357,0.93567,0.10836,0.1521,0.66671,0.12192,0.63063,0.63939,0.28226,0.44512,0.42868,0.29156,0.94684,0.46574,0.50074,0.27519,0.24405,0.50154,0.23099,0.75595,0.29625,0.06488,0.70657,0.29102,0.33168,0.18937'
_aflow_Strukturbericht '$S0_{1}$'
_aflow_Pearson 'aP32'

_symmetry_space_group_name_H-M "P -1"
_symmetry_Int_Tables_number 2
 
_cell_length_a    7.12000
_cell_length_b    7.84790
_cell_length_c    5.57380
_cell_angle_alpha 89.97400
_cell_angle_beta  101.17700
_cell_angle_gamma 106.00000
 
loop_
_space_group_symop_id
_space_group_symop_operation_xyz
1 x,y,z
2 -x,-y,-z
 
loop_
_atom_site_label
_atom_site_type_symbol
_atom_site_symmetry_multiplicity
_atom_site_Wyckoff_label
_atom_site_fract_x
_atom_site_fract_y
_atom_site_fract_z
_atom_site_occupancy
Al1 Al 2 i 0.32533 0.70412 0.45812 1.00000
Al2 Al 2 i 0.29740 0.69882 0.95040 1.00000
Al3 Al 2 i 0.09980 0.38615 0.64043 1.00000
Al4 Al 2 i 0.11205 0.91750 0.16469 1.00000
O1 O 2 i 0.10933 0.14685 0.12866 1.00000
O2 O 2 i 0.12287 0.68535 0.18113 1.00000
O3 O 2 i 0.27507 0.45443 0.95474 1.00000
O4 O 2 i 0.28353 0.93570 0.93567 1.00000
O5 O 2 i 0.10836 0.15210 0.66671 1.00000
O6 O 2 i 0.12192 0.63063 0.63939 1.00000
O7 O 2 i 0.28226 0.44512 0.42868 1.00000
O8 O 2 i 0.29156 0.94684 0.46574 1.00000
O9 O 2 i 0.50074 0.27519 0.24405 1.00000
O10 O 2 i 0.50154 0.23099 0.75595 1.00000
Si1 Si 2 i 0.29625 0.06488 0.70657 1.00000
Si2 Si 2 i 0.29102 0.33168 0.18937 1.00000