# CIF file 
data_findsym-output
_audit_creation_method FINDSYM

_chemical_name_mineral 'K2O6S3'
_chemical_formula_sum 'K2 O6 S3'

loop_
_publ_author_name
 'J. M. Stewart'
 'J. T. Szyma\\'{n}ski'
_journal_name_full_name
;
 Acta Crystallographica Section B: Structural Science
;
_journal_volume 35
_journal_year 1979
_journal_page_first 1967
_journal_page_last 1970
_publ_Section_title
;
 A redetermination of the crystal structure of potassium trithionate, K$_{2}$S$_{3}$O$_{6}$
;

_aflow_title 'K$_{2}$S$_{3}$O$_{6}$ ($K5_{1}$) Structure'
_aflow_proto 'A2B6C3_oP44_62_2c_2c2d_3c'
_aflow_params 'a,b/a,c/a,x_{1},z_{1},x_{2},z_{2},x_{3},z_{3},x_{4},z_{4},x_{5},z_{5},x_{6},z_{6},x_{7},z_{7},x_{8},y_{8},z_{8},x_{9},y_{9},z_{9}'
_aflow_params_values '9.794,0.58627731264,1.3977945681,0.1324,0.4084,0.1792,0.736,0.8837,0.1626,0.3229,-0.0759,0.0298,0.1757,0.0907,0.0289,0.3015,0.0293,-0.0807,0.5411,0.779,0.6492,0.541,-0.076'
_aflow_Strukturbericht '$K5_{1}$'
_aflow_Pearson 'oP44'

_symmetry_space_group_name_H-M "P 21/n 21/m 21/a"
_symmetry_Int_Tables_number 62
 
_cell_length_a    9.79400
_cell_length_b    5.74200
_cell_length_c    13.69000
_cell_angle_alpha 90.00000
_cell_angle_beta  90.00000
_cell_angle_gamma 90.00000
 
loop_
_space_group_symop_id
_space_group_symop_operation_xyz
1 x,y,z
2 x+1/2,-y+1/2,-z+1/2
3 -x,y+1/2,-z
4 -x+1/2,-y,z+1/2
5 -x,-y,-z
6 -x+1/2,y+1/2,z+1/2
7 x,-y+1/2,z
8 x+1/2,y,-z+1/2
 
loop_
_atom_site_label
_atom_site_type_symbol
_atom_site_symmetry_multiplicity
_atom_site_Wyckoff_label
_atom_site_fract_x
_atom_site_fract_y
_atom_site_fract_z
_atom_site_occupancy
K1 K 4 c 0.13240 0.25000 0.40840 1.00000
K2 K 4 c 0.17920 0.25000 0.73600 1.00000
O1 O 4 c 0.88370 0.25000 0.16260 1.00000
O2 O 4 c 0.32290 0.25000 -0.07590 1.00000
S1 S 4 c 0.02980 0.25000 0.17570 1.00000
S2 S 4 c 0.09070 0.25000 0.02890 1.00000
S3 S 4 c 0.30150 0.25000 0.02930 1.00000
O3 O 8 d -0.08070 0.54110 0.77900 1.00000
O4 O 8 d 0.64920 0.54100 -0.07600 1.00000