# CIF file 
data_findsym-output
_audit_creation_method FINDSYM

_chemical_name_mineral 'Cl2H6N2Zn'
_chemical_formula_sum 'Cl2 H6 N2 Zn'

loop_
_publ_author_name
 'T. Iv\v{s}i\\'{c}'
 'D. W. Bi'
 'A. Magrez'
_journal_name_full_name
;
 Acta Crystallographica Section E: Crystallographic Communications
;
_journal_volume 75
_journal_year 2019
_journal_page_first 1386
_journal_page_last 1388
_publ_Section_title
;
 New refinement of the crystal structure of Zn(NH$_{3}$)$_{2}$Cl$_{2}$ at 100K
;

_aflow_title 'Zn(NH$_{3}$)$_{2}$Cl$_{2}$ ($E1_{2}$) Structure'
_aflow_proto 'A2B6C2D_oI44_74_h_ij_i_e'
_aflow_params 'a,b/a,c/a,z_{1},y_{2},z_{2},x_{3},z_{3},x_{4},z_{4},x_{5},y_{5},z_{5}'
_aflow_params_values '7.7077,1.04085524865,1.09664361612,0.88832,0.47954,0.73085,0.206,0.533,0.28237,0.47949,0.274,0.3281,0.416'
_aflow_Strukturbericht '$E1_{2}$'
_aflow_Pearson 'oI44'

_symmetry_space_group_name_H-M "I 21/m 21/m 21/a"
_symmetry_Int_Tables_number 74
 
_cell_length_a    7.70770
_cell_length_b    8.02260
_cell_length_c    8.45260
_cell_angle_alpha 90.00000
_cell_angle_beta  90.00000
_cell_angle_gamma 90.00000
 
loop_
_space_group_symop_id
_space_group_symop_operation_xyz
1 x,y,z
2 x,-y,-z
3 -x,y+1/2,-z
4 -x,-y+1/2,z
5 -x,-y,-z
6 -x,y,z
7 x,-y+1/2,z
8 x,y+1/2,-z
9 x+1/2,y+1/2,z+1/2
10 x+1/2,-y+1/2,-z+1/2
11 -x+1/2,y,-z+1/2
12 -x+1/2,-y,z+1/2
13 -x+1/2,-y+1/2,-z+1/2
14 -x+1/2,y+1/2,z+1/2
15 x+1/2,-y,z+1/2
16 x+1/2,y,-z+1/2
 
loop_
_atom_site_label
_atom_site_type_symbol
_atom_site_symmetry_multiplicity
_atom_site_Wyckoff_label
_atom_site_fract_x
_atom_site_fract_y
_atom_site_fract_z
_atom_site_occupancy
Zn1 Zn 4 e 0.00000 0.25000 0.88832 1.00000
Cl1 Cl 8 h 0.00000 0.47954 0.73085 1.00000
H1 H 8 i 0.20600 0.25000 0.53300 1.00000
N1 N 8 i 0.28237 0.25000 0.47949 1.00000
H2 H 16 j 0.27400 0.32810 0.41600 1.00000