# CIF file 
data_findsym-output
_audit_creation_method FINDSYM

_chemical_name_mineral 'Cl2(H2O)6Sr'
_chemical_formula_sum 'Cl2 (H2O)6 Sr'

loop_
_publ_author_name
 'Z. Herrmann'
_journal_name_full_name
;
 Zeitschrift fur Anorganische und Allgemeine Chemie
;
_journal_volume 187
_journal_year 1930
_journal_page_first 231
_journal_page_last 236
_publ_Section_title
;
 {\"U}ber die Struktur des Strontiumchlorid-Hexahydrats
;

# Found in Strukturbericht Band II 1928-1932, 1937

_aflow_title '$I1_{3}$ (SrCl$_{2}$$\cdot$(H$_{2}$O)$_{6}$) ({\em{obsolete}}) Structure'
_aflow_proto 'A2B6C_hP9_162_d_k_a'
_aflow_params 'a,c/a,x_{3},z_{3}'
_aflow_params_values '7.906,0.514798886921,0.387,0.0162'
_aflow_Strukturbericht '$I1_{3}$'
_aflow_Pearson 'hP9'

_symmetry_space_group_name_H-M "P -3 1 2/m"
_symmetry_Int_Tables_number 162
 
_cell_length_a    7.90600
_cell_length_b    7.90600
_cell_length_c    4.07000
_cell_angle_alpha 90.00000
_cell_angle_beta  90.00000
_cell_angle_gamma 120.00000
 
loop_
_space_group_symop_id
_space_group_symop_operation_xyz
1 x,y,z
2 -y,x-y,z
3 -x+y,-x,z
4 x,x-y,-z
5 -x+y,y,-z
6 -y,-x,-z
7 -x,-y,-z
8 y,-x+y,-z
9 x-y,x,-z
10 -x,-x+y,z
11 x-y,-y,z
12 y,x,z
 
loop_
_atom_site_label
_atom_site_type_symbol
_atom_site_symmetry_multiplicity
_atom_site_Wyckoff_label
_atom_site_fract_x
_atom_site_fract_y
_atom_site_fract_z
_atom_site_occupancy
Sr1 Sr 1 a 0.00000 0.00000 0.00000 1.00000
Cl1 Cl 2 d 0.33333 0.66667 0.50000 1.00000
H2O1 H2O 6 k 0.38700 0.38700 0.01620 1.00000
