# CIF file 
data_findsym-output
_audit_creation_method FINDSYM

_chemical_name_mineral 'Br2(H6O)6O6Zn'
_chemical_formula_sum 'Br2 (H2O)6 O6 Zn'

loop_
_publ_author_name
 'S. H. Y\"{u}'
 'C. A. Beevers'
_journal_name_full_name
;
 Zeitschrift f{\"u}r Kristallographie - Crystalline Materials
;
_journal_volume 95
_journal_year 1936
_journal_page_first 426
_journal_page_last 434
_publ_Section_title
;
 The Crystal Structure of Zinc Bromate Hexahydrate [Zn(BrO$_{3}$)$_{2}$ $\cdot$ 6H$_{2}$O]
;

# Found in Strukturbericht Band IV 1936, 1938

_aflow_title 'Zn(BrO$_{3}$)$_{2}$$\cdot$6H$_{2}$O ($J1_{10}$) Structure'
_aflow_proto 'A2B6C6D_cP60_205_c_d_d_a'
_aflow_params 'a,x_{2},x_{3},y_{3},z_{3},x_{4},y_{4},z_{4}'
_aflow_params_values '10.316,0.259,0.195,0.05,0.965,0.19,0.145,0.33'
_aflow_Strukturbericht '$J1_{10}$'
_aflow_Pearson 'cP60'

_symmetry_space_group_name_H-M "P 21/a -3"
_symmetry_Int_Tables_number 205
 
_cell_length_a    10.31600
_cell_length_b    10.31600
_cell_length_c    10.31600
_cell_angle_alpha 90.00000
_cell_angle_beta  90.00000
_cell_angle_gamma 90.00000
 
loop_
_space_group_symop_id
_space_group_symop_operation_xyz
1 x,y,z
2 x+1/2,-y+1/2,-z
3 -x,y+1/2,-z+1/2
4 -x+1/2,-y,z+1/2
5 y,z,x
6 y+1/2,-z+1/2,-x
7 -y,z+1/2,-x+1/2
8 -y+1/2,-z,x+1/2
9 z,x,y
10 z+1/2,-x+1/2,-y
11 -z,x+1/2,-y+1/2
12 -z+1/2,-x,y+1/2
13 -x,-y,-z
14 -x+1/2,y+1/2,z
15 x,-y+1/2,z+1/2
16 x+1/2,y,-z+1/2
17 -y,-z,-x
18 -y+1/2,z+1/2,x
19 y,-z+1/2,x+1/2
20 y+1/2,z,-x+1/2
21 -z,-x,-y
22 -z+1/2,x+1/2,y
23 z,-x+1/2,y+1/2
24 z+1/2,x,-y+1/2
 
loop_
_atom_site_label
_atom_site_type_symbol
_atom_site_symmetry_multiplicity
_atom_site_Wyckoff_label
_atom_site_fract_x
_atom_site_fract_y
_atom_site_fract_z
_atom_site_occupancy
Zn1 Zn 4 a 0.00000 0.00000 0.00000 1.00000
Br1 Br 8 c 0.25900 0.25900 0.25900 1.00000
H2O1 H2O 24 d 0.19500 0.05000 0.96500 1.00000
O1 O 24 d 0.19000 0.14500 0.33000 1.00000