# CIF file 
data_findsym-output
_audit_creation_method FINDSYM

_chemical_name_mineral 'Blossite'
_chemical_formula_sum 'Cu2 O7 V2'

loop_
_publ_author_name
 'C. Calvo'
 'R. Faggiani'
_journal_name_full_name
;
 Acta Crystallographica Section B: Structural Science
;
_journal_volume 31
_journal_year 1975
_journal_page_first 603
_journal_page_last 605
_publ_Section_title
;
 $\alpha$ Cupric Divanadate
;

# Found in The American Mineralogist Crystal Structure Database, 2003

_aflow_title 'Blossite ($\alpha$-Cu$_{2}$V$_{2}$O$_{7}$) Structure'
_aflow_proto 'A2B7C2_oF88_43_b_a3b_b'
_aflow_params 'a,b/a,c/a,z_{1},x_{2},y_{2},z_{2},x_{3},y_{3},z_{3},x_{4},y_{4},z_{4},x_{5},y_{5},z_{5},x_{6},y_{6},z_{6}'
_aflow_params_values '20.645,0.406054734803,0.312036812788,-0.0908,0.1658,0.3646,0.75,0.2453,0.5622,0.2774,0.1446,0.4368,0.0332,0.1619,0.3477,0.4592,0.19906,0.4054,0.2343'
_aflow_Strukturbericht 'None'
_aflow_Pearson 'oF88'

_symmetry_space_group_name_H-M "F d d 2"
_symmetry_Int_Tables_number 43
 
_cell_length_a    20.64500
_cell_length_b    8.38300
_cell_length_c    6.44200
_cell_angle_alpha 90.00000
_cell_angle_beta  90.00000
_cell_angle_gamma 90.00000
 
loop_
_space_group_symop_id
_space_group_symop_operation_xyz
1 x,y,z
2 -x,-y,z
3 -x+1/4,y+1/4,z+1/4
4 x+1/4,-y+1/4,z+1/4
5 x,y+1/2,z+1/2
6 -x,-y+1/2,z+1/2
7 -x+1/4,y+3/4,z+3/4
8 x+1/4,-y+3/4,z+3/4
9 x+1/2,y,z+1/2
10 -x+1/2,-y,z+1/2
11 -x+3/4,y+1/4,z+3/4
12 x+3/4,-y+1/4,z+3/4
13 x+1/2,y+1/2,z
14 -x+1/2,-y+1/2,z
15 -x+3/4,y+3/4,z+1/4
16 x+3/4,-y+3/4,z+1/4
 
loop_
_atom_site_label
_atom_site_type_symbol
_atom_site_symmetry_multiplicity
_atom_site_Wyckoff_label
_atom_site_fract_x
_atom_site_fract_y
_atom_site_fract_z
_atom_site_occupancy
O1 O 8 a 0.00000 0.00000 -0.09080 1.00000
Cu1 Cu 16 b 0.16580 0.36460 0.75000 1.00000
O2 O 16 b 0.24530 0.56220 0.27740 1.00000
O3 O 16 b 0.14460 0.43680 0.03320 1.00000
O4 O 16 b 0.16190 0.34770 0.45920 1.00000
V1 V 16 b 0.19906 0.40540 0.23430 1.00000