# CIF file 
data_findsym-output
_audit_creation_method FINDSYM

_chemical_name_mineral 'Cd2O7Re2'
_chemical_formula_sum 'Cd2 O7 Re2'

loop_
_publ_author_name
 'S.-W. Huang'
 'H.-T. Jeng'
 'J.-Y. Lin'
 'W. J. Chang'
 'J. M. Chen'
 'G. H. Lee'
 'H. Berger'
 'H. D. Yang'
 'K. S. Liang'
_journal_name_full_name
;
 Journal of Physics: Condensed Matter
;
_journal_volume 21
_journal_year 2009
_journal_page_first 195602
_journal_page_last 195602
_publ_Section_title
;
 Electronic structure of pyrochlore Cd$_{2}$Re$_{2}$O$_{7}$
;

# Found in The crystal structure of the inversion breaking metal Cd$_{2}$Re$_{2}$O$_{7}$, {arXiv:1911.10141 [cond-mat.str-el]}, 2019

_aflow_title 'Phase III Cd$_{2}$Re$_{2}$O$_{7}$ Structure'
_aflow_proto 'A2B7C2_tI44_98_f_bcde_f'
_aflow_params 'a,c/a,z_{2},x_{3},x_{4},x_{5},x_{6}'
_aflow_params_values '7.2313,1.41443447236,0.81048,0.188,0.803,0.5041,-0.0033'
_aflow_Strukturbericht 'None'
_aflow_Pearson 'tI44'

_symmetry_space_group_name_H-M "I 41 2 2"
_symmetry_Int_Tables_number 98
 
_cell_length_a    7.23130
_cell_length_b    7.23130
_cell_length_c    10.22820
_cell_angle_alpha 90.00000
_cell_angle_beta  90.00000
_cell_angle_gamma 90.00000
 
loop_
_space_group_symop_id
_space_group_symop_operation_xyz
1 x,y,z
2 x,-y+1/2,-z+1/4
3 -x,y+1/2,-z+1/4
4 -x,-y,z
5 -y,-x,-z
6 -y,x+1/2,z+1/4
7 y,-x+1/2,z+1/4
8 y,x,-z
9 x+1/2,y+1/2,z+1/2
10 x+1/2,-y,-z+3/4
11 -x+1/2,y,-z+3/4
12 -x+1/2,-y+1/2,z+1/2
13 -y+1/2,-x+1/2,-z+1/2
14 -y+1/2,x,z+3/4
15 y+1/2,-x,z+3/4
16 y+1/2,x+1/2,-z+1/2
 
loop_
_atom_site_label
_atom_site_type_symbol
_atom_site_symmetry_multiplicity
_atom_site_Wyckoff_label
_atom_site_fract_x
_atom_site_fract_y
_atom_site_fract_z
_atom_site_occupancy
O1 O 4 b 0.00000 0.00000 0.50000 1.00000
O2 O 8 c 0.00000 0.00000 0.81048 1.00000
O3 O 8 d 0.18800 0.18800 0.00000 1.00000
O4 O 8 e 0.80300 0.19700 0.00000 1.00000
Cd1 Cd 8 f 0.50410 0.25000 0.12500 1.00000
Re1 Re 8 f -0.00330 0.25000 0.12500 1.00000
