# CIF file 
data_findsym-output
_audit_creation_method FINDSYM

_chemical_name_mineral 'Cd2O7Re2'
_chemical_formula_sum 'Cd2 O7 Re2'

loop_
_publ_author_name
 'K. J. Kapcia'
 'M. Reedyk'
 'M. Hajialamdari'
 'A. Ptok'
 'P. Piekarz'
 'F. S. Razavi'
 'A. M. Ole\\'{s}'
 'R. K. Kremer'
_journal_year 2019
_publ_Section_title
;
 Low-Temperature Phase of the Cd$_{2}$Re$_{2}$O$_{7}$ Superconductor: {\em Ab initio} Phonon Calculations and Raman Scattering
;

_aflow_title 'Predicted Phase IV Cd$_{2}$Re$_{2}$O$_{7}$ Structure'
_aflow_proto 'A2B7C2_oF88_22_k_bdefghij_k'
_aflow_params 'a,b/a,c/a,x_{3},y_{4},z_{5},z_{6},y_{7},x_{8},x_{9},y_{9},z_{9},x_{10},y_{10},z_{10}'
_aflow_params_values '10.3832,0.999961476231,1.00259072348,0.2,0.2,0.1689,0.0447,0.4295,0.0706,0.63141,0.63137,0.6114,0.1245,0.124502,0.126'
_aflow_Strukturbericht 'None'
_aflow_Pearson 'oF88'

_symmetry_space_group_name_H-M "F 2 2 2"
_symmetry_Int_Tables_number 22
 
_cell_length_a    10.38320
_cell_length_b    10.38280
_cell_length_c    10.41010
_cell_angle_alpha 90.00000
_cell_angle_beta  90.00000
_cell_angle_gamma 90.00000
 
loop_
_space_group_symop_id
_space_group_symop_operation_xyz
1 x,y,z
2 x,-y,-z
3 -x,y,-z
4 -x,-y,z
5 x,y+1/2,z+1/2
6 x,-y+1/2,-z+1/2
7 -x,y+1/2,-z+1/2
8 -x,-y+1/2,z+1/2
9 x+1/2,y,z+1/2
10 x+1/2,-y,-z+1/2
11 -x+1/2,y,-z+1/2
12 -x+1/2,-y,z+1/2
13 x+1/2,y+1/2,z
14 x+1/2,-y+1/2,-z
15 -x+1/2,y+1/2,-z
16 -x+1/2,-y+1/2,z
 
loop_
_atom_site_label
_atom_site_type_symbol
_atom_site_symmetry_multiplicity
_atom_site_Wyckoff_label
_atom_site_fract_x
_atom_site_fract_y
_atom_site_fract_z
_atom_site_occupancy
O1 O 4 b 0.000000 0.000000 0.500000 1.00000
O2 O 4 d 0.250000 0.250000 0.750000 1.00000
O3 O 8 e 0.200000 0.000000 0.000000 1.00000
O4 O 8 f 0.000000 0.200000 0.000000 1.00000
O5 O 8 g 0.000000 0.000000 0.168900 1.00000
O6 O 8 h 0.250000 0.250000 0.044700 1.00000
O7 O 8 i 0.250000 0.429500 0.250000 1.00000
O8 O 8 j 0.070600 0.250000 0.250000 1.00000
Cd1 Cd 16 k 0.631410 0.631370 0.611400 1.00000
Re1 Re 16 k 0.124500 0.124502 0.126000 1.00000