# CIF file 
data_findsym-output
_audit_creation_method FINDSYM

_chemical_name_mineral 'Protoanthophyllite'
_chemical_formula_sum 'H2 Mg7 O24 Si8'

loop_
_publ_author_name
 'H. Konishi'
 'T. L. Groy'
 'I. D\\'{o}dony'
 'R. Miyawaki'
 'S. Matsubara'
 'P. R. Buseck'
_journal_name_full_name
;
 American Mineralogist
;
_journal_volume 88
_journal_year 2003
_journal_page_first 1718
_journal_page_last 1723
_publ_Section_title
;
 Crystal structure of protoanthophyllite: A new mineral from the Takase ultramafic complex, Japan
;

_aflow_title 'Protoanthophyllite (H$_{2}$Mg$_{7}$Si$_{8}$O$_{24}$) Structure'
_aflow_proto 'A2B7C24D8_oP82_58_g_ae2f_2g5h_2h'
_aflow_params 'a,b/a,c/a,z_{2},z_{3},z_{4},x_{5},y_{5},x_{6},y_{6},x_{7},y_{7},x_{8},y_{8},z_{8},x_{9},y_{9},z_{9},x_{10},y_{10},z_{10},x_{11},y_{11},z_{11},x_{12},y_{12},z_{12},x_{13},y_{13},z_{13},x_{14},y_{14},z_{14}'
_aflow_params_values '5.3117,1.76126287253,3.37571775514,0.17748,0.41276,0.24009,0.682,0.225,0.6656,0.1128,0.1502,0.3414,0.1666,0.11279,0.08868,0.6699,0.12137,0.17464,0.1834,0.1211,0.25265,0.433,0.3436,0.11987,-0.0626,0.34888,0.13244,0.17327,0.28464,0.08483,0.67034,0.29399,0.17095'
_aflow_Strukturbericht 'None'
_aflow_Pearson 'oP82'

_symmetry_space_group_name_H-M "P 21/n 21/n 2/m"
_symmetry_Int_Tables_number 58
 
_cell_length_a    5.31170
_cell_length_b    9.35530
_cell_length_c    17.93080
_cell_angle_alpha 90.00000
_cell_angle_beta  90.00000
_cell_angle_gamma 90.00000
 
loop_
_space_group_symop_id
_space_group_symop_operation_xyz
1 x,y,z
2 x+1/2,-y+1/2,-z+1/2
3 -x+1/2,y+1/2,-z+1/2
4 -x,-y,z
5 -x,-y,-z
6 -x+1/2,y+1/2,z+1/2
7 x+1/2,-y+1/2,z+1/2
8 x,y,-z
 
loop_
_atom_site_label
_atom_site_type_symbol
_atom_site_symmetry_multiplicity
_atom_site_Wyckoff_label
_atom_site_fract_x
_atom_site_fract_y
_atom_site_fract_z
_atom_site_occupancy
Mg1 Mg 2 a 0.00000 0.00000 0.00000 1.00000
Mg2 Mg 4 e 0.00000 0.00000 0.17748 1.00000
Mg3 Mg 4 f 0.00000 0.50000 0.41276 1.00000
Mg4 Mg 4 f 0.00000 0.50000 0.24009 1.00000
H1 H 4 g 0.68200 0.22500 0.00000 1.00000
O1 O 4 g 0.66560 0.11280 0.00000 1.00000
O2 O 4 g 0.15020 0.34140 0.00000 1.00000
O3 O 8 h 0.16660 0.11279 0.08868 1.00000
O4 O 8 h 0.66990 0.12137 0.17464 1.00000
O5 O 8 h 0.18340 0.12110 0.25265 1.00000
O6 O 8 h 0.43300 0.34360 0.11987 1.00000
O7 O 8 h -0.06260 0.34888 0.13244 1.00000
Si1 Si 8 h 0.17327 0.28464 0.08483 1.00000
Si2 Si 8 h 0.67034 0.29399 0.17095 1.00000