# CIF file 
data_findsym-output
_audit_creation_method FINDSYM

_chemical_name_mineral 'Gd2O7Si2'
_chemical_formula_sum 'Gd2 O7 Si2'

loop_
_publ_author_name
 'Y. I. Smolin'
 'Y. F. Shepelev'
_journal_name_full_name
;
 Acta Crystallographica Section B: Structural Science
;
_journal_volume 26
_journal_year 1970
_journal_page_first 484
_journal_page_last 492
_publ_Section_title
;
 The Crystal Structures of the Rare Earth Pyrosilicates
;

# Found in The crystal structure of $\delta$-yttrium pyrosilicate, $\delta$-Y$_{2}$Si$_{2}$O$_{7}$, 1990

_aflow_title 'Possible $\delta$-Gd$_{2}$Si$_{2}$O$_{7}$ Structure'
_aflow_proto 'A2B7C2_oP44_33_2a_7a_2a'
_aflow_params 'a,b/a,c/a,x_{1},y_{1},z_{1},x_{2},y_{2},z_{2},x_{3},y_{3},z_{3},x_{4},y_{4},z_{4},x_{5},y_{5},z_{5},x_{6},y_{6},z_{6},x_{7},y_{7},z_{7},x_{8},y_{8},z_{8},x_{9},y_{9},z_{9},x_{10},y_{10},z_{10},x_{11},y_{11},z_{11}'
_aflow_params_values '13.87,0.365753424658,0.600576784427,0.12551,0.3373,-0.00169,0.12564,0.33739,0.51409,0.2715,0.4769,0.0876,0.2658,0.4857,0.413,0.3457,0.0706,0.2465,0.4211,0.5557,0.2448,0.5472,0.7858,0.0866,0.5456,0.7882,0.4206,0.5988,0.3526,0.256,0.3205,0.3744,0.2505,0.539,0.6253,0.2498'
_aflow_Strukturbericht 'None'
_aflow_Pearson 'oP44'

_symmetry_space_group_name_H-M "P n a 21"
_symmetry_Int_Tables_number 33
 
_cell_length_a    13.87000
_cell_length_b    5.07300
_cell_length_c    8.33000
_cell_angle_alpha 90.00000
_cell_angle_beta  90.00000
_cell_angle_gamma 90.00000
 
loop_
_space_group_symop_id
_space_group_symop_operation_xyz
1 x,y,z
2 -x,-y,z+1/2
3 -x+1/2,y+1/2,z+1/2
4 x+1/2,-y+1/2,z
 
loop_
_atom_site_label
_atom_site_type_symbol
_atom_site_symmetry_multiplicity
_atom_site_Wyckoff_label
_atom_site_fract_x
_atom_site_fract_y
_atom_site_fract_z
_atom_site_occupancy
Gd1 Gd 4 a 0.12551 0.33730 -0.00169 1.00000
Gd2 Gd 4 a 0.12564 0.33739 0.51409 1.00000
O1 O 4 a 0.27150 0.47690 0.08760 1.00000
O2 O 4 a 0.26580 0.48570 0.41300 1.00000
O3 O 4 a 0.34570 0.07060 0.24650 1.00000
O4 O 4 a 0.42110 0.55570 0.24480 1.00000
O5 O 4 a 0.54720 0.78580 0.08660 1.00000
O6 O 4 a 0.54560 0.78820 0.42060 1.00000
O7 O 4 a 0.59880 0.35260 0.25600 1.00000
Si1 Si 4 a 0.32050 0.37440 0.25050 1.00000
Si2 Si 4 a 0.53900 0.62530 0.24980 1.00000