# CIF file 
data_findsym-output
_audit_creation_method FINDSYM

_chemical_name_mineral 'As2Cl9Cs3'
_chemical_formula_sum 'As2 Cl9 Cs3'

loop_
_publ_author_name
 'J. L. Hoard'
 'L. Goldstein'
_journal_name_full_name
;
 Journal of Chemical Physics
;
_journal_volume 3
_journal_year 1935
_journal_page_first 117
_journal_page_last 122
_publ_Section_title
;
 The Structure of Caesium Enneachlordiarsenite, Cs$_{3}$As$_{2}$Cl$_{9}$
;

_aflow_title 'Cs$_{3}$As$_{2}$Cl$_{9}$ ($K7_{3}$) Structure'
_aflow_proto 'A2B9C3_hP14_150_d_eg_ad'
_aflow_params 'a,c/a,z_{2},z_{3},x_{4},x_{5},y_{5},z_{5}'
_aflow_params_values '7.37,1.20895522388,0.805,0.32,0.48,0.365,0.2,0.325'
_aflow_Strukturbericht '$K7_{3}$'
_aflow_Pearson 'hP14'

_symmetry_space_group_name_H-M "P 3 2 1"
_symmetry_Int_Tables_number 150
 
_cell_length_a    7.37000
_cell_length_b    7.37000
_cell_length_c    8.91000
_cell_angle_alpha 90.00000
_cell_angle_beta  90.00000
_cell_angle_gamma 120.00000
 
loop_
_space_group_symop_id
_space_group_symop_operation_xyz
1 x,y,z
2 -y,x-y,z
3 -x+y,-x,z
4 x-y,-y,-z
5 y,x,-z
6 -x,-x+y,-z
 
loop_
_atom_site_label
_atom_site_type_symbol
_atom_site_symmetry_multiplicity
_atom_site_Wyckoff_label
_atom_site_fract_x
_atom_site_fract_y
_atom_site_fract_z
_atom_site_occupancy
Cs1 Cs 1 a 0.00000 0.00000 0.00000 1.00000
As1 As 2 d 0.33333 0.66667 0.80500 1.00000
Cs2 Cs 2 d 0.33333 0.66667 0.32000 1.00000
Cl1 Cl 3 e 0.48000 0.00000 0.00000 1.00000
Cl2 Cl 6 g 0.36500 0.20000 0.32500 1.00000