# CIF file 
data_findsym-output
_audit_creation_method FINDSYM

_chemical_name_mineral 'Clinocervantite'
_chemical_formula_sum 'O2 Sb'

loop_
_publ_author_name
 'R. Basso'
 'G. Lucchetti'
 'L. Zefiro'
 'A. Palenzona'
_journal_name_full_name
;
 European Journal of Mineralogy
;
_journal_volume 11
_journal_year 1999
_journal_page_first 95
_journal_page_last 100
_publ_Section_title
;
 Clinocervantite, $\beta$-Sb$_{2}$O$_{4}$, the natural monoclinic polymorph of cervantite from the Cetine mine, Siena, Italy
;

# Found in The American Mineralogist Crystal Structure Database, 2003

_aflow_title 'Clinocervantite ($\beta$-Sb$_{2}$O$_{4}$) Structure'
_aflow_proto 'A2B_mC24_15_2f_ce'
_aflow_params 'a,b/a,c/a,\beta,y_{2},x_{3},y_{3},z_{3},x_{4},y_{4},z_{4}'
_aflow_params_values '12.061,0.40096177763,0.446314567615,103.12,0.2851,0.1918,0.0517,0.6746,0.0939,0.4122,-0.0351'
_aflow_Strukturbericht 'None'
_aflow_Pearson 'mC24'

_symmetry_space_group_name_H-M "C 1 2/c 1"
_symmetry_Int_Tables_number 15
 
_cell_length_a    12.06100
_cell_length_b    4.83600
_cell_length_c    5.38300
_cell_angle_alpha 90.00000
_cell_angle_beta  103.12000
_cell_angle_gamma 90.00000
 
loop_
_space_group_symop_id
_space_group_symop_operation_xyz
1 x,y,z
2 -x,y,-z+1/2
3 -x,-y,-z
4 x,-y,z+1/2
5 x+1/2,y+1/2,z
6 -x+1/2,y+1/2,-z+1/2
7 -x+1/2,-y+1/2,-z
8 x+1/2,-y+1/2,z+1/2
 
loop_
_atom_site_label
_atom_site_type_symbol
_atom_site_symmetry_multiplicity
_atom_site_Wyckoff_label
_atom_site_fract_x
_atom_site_fract_y
_atom_site_fract_z
_atom_site_occupancy
Sb1 Sb 4 c 0.25000 0.25000 0.00000 1.00000
Sb2 Sb 4 e 0.00000 0.28510 0.25000 1.00000
O1 O 8 f 0.19180 0.05170 0.67460 1.00000
O2 O 8 f 0.09390 0.41220 -0.03510 1.00000