# CIF file 
data_findsym-output
_audit_creation_method FINDSYM

_chemical_name_mineral 'Tolbachite'
_chemical_formula_sum 'Cl2 Cu'

loop_
_publ_author_name
 'P. C. Burns'
 'F. C. Hawthorne'
_journal_name_full_name
;
 American Mineralogist
;
_journal_volume 78
_journal_year 1993
_journal_page_first 187
_journal_page_last 189
_publ_Section_title
;
 Tolbachite, CuCl$_{2}$, the first example of Cu$_{2}^{+}$ octahedrally coordinated by Cl$^{-}$
;

# Found in The American Mineralogist Crystal Structure Database, 2003

_aflow_title 'Tolbachite (CuCl$_{2}$) Structure'
_aflow_proto 'A2B_mC6_12_i_a'
_aflow_params 'a,b/a,c/a,\beta,x_{2},z_{2}'
_aflow_params_values '6.9038,0.477925200614,0.988441148353,122.197,0.5048,0.2294'
_aflow_Strukturbericht 'None'
_aflow_Pearson 'mC6'

_symmetry_space_group_name_H-M "C 1 2/m 1"
_symmetry_Int_Tables_number 12
 
_cell_length_a    6.90380
_cell_length_b    3.29950
_cell_length_c    6.82400
_cell_angle_alpha 90.00000
_cell_angle_beta  122.19700
_cell_angle_gamma 90.00000
 
loop_
_space_group_symop_id
_space_group_symop_operation_xyz
1 x,y,z
2 -x,y,-z
3 -x,-y,-z
4 x,-y,z
5 x+1/2,y+1/2,z
6 -x+1/2,y+1/2,-z
7 -x+1/2,-y+1/2,-z
8 x+1/2,-y+1/2,z
 
loop_
_atom_site_label
_atom_site_type_symbol
_atom_site_symmetry_multiplicity
_atom_site_Wyckoff_label
_atom_site_fract_x
_atom_site_fract_y
_atom_site_fract_z
_atom_site_occupancy
Cu1 Cu 2 a 0.00000 0.00000 0.00000 1.00000
Cl1 Cl 4 i 0.50480 0.00000 0.22940 1.00000