# CIF file 
data_findsym-output
_audit_creation_method FINDSYM

_chemical_name_mineral 'C2Ca'
_chemical_formula_sum 'C2 Ca'

loop_
_publ_author_name
 'M. Knapp'
 'U. Ruschewitz'
_journal_name_full_name
;
 Chemistry - A European Journal
;
_journal_volume 7
_journal_year 2001
_journal_page_first 874
_journal_page_last 880
_publ_Section_title
;
 Structural Phase Transitions in CaC$_{2}$
;

_aflow_title 'CaC$_{2}$-III Structure'
_aflow_proto 'A2B_mC12_12_2i_i'
_aflow_params 'a,b/a,c/a,\beta,x_{1},z_{1},x_{2},z_{2},x_{3},z_{3}'
_aflow_params_values '7.2286,0.532938604986,1.0204465595,107.338,0.439,0.065,-0.075,0.447,0.2086,0.2486'
_aflow_Strukturbericht 'None'
_aflow_Pearson 'mC12'

_symmetry_space_group_name_H-M "C 1 2/m 1"
_symmetry_Int_Tables_number 12
 
_cell_length_a    7.22860
_cell_length_b    3.85240
_cell_length_c    7.37640
_cell_angle_alpha 90.00000
_cell_angle_beta  107.33800
_cell_angle_gamma 90.00000
 
loop_
_space_group_symop_id
_space_group_symop_operation_xyz
1 x,y,z
2 -x,y,-z
3 -x,-y,-z
4 x,-y,z
5 x+1/2,y+1/2,z
6 -x+1/2,y+1/2,-z
7 -x+1/2,-y+1/2,-z
8 x+1/2,-y+1/2,z
 
loop_
_atom_site_label
_atom_site_type_symbol
_atom_site_symmetry_multiplicity
_atom_site_Wyckoff_label
_atom_site_fract_x
_atom_site_fract_y
_atom_site_fract_z
_atom_site_occupancy
C1 C 4 i 0.43900 0.00000 0.06500 1.00000
C2 C 4 i -0.07500 0.00000 0.44700 1.00000
Ca1 Ca 4 i 0.20860 0.00000 0.24860 1.00000