# CIF file 
data_findsym-output
_audit_creation_method FINDSYM

_chemical_name_mineral 'B2Ru'
_chemical_formula_sum 'B2 Ru'

loop_
_publ_author_name
 'B. Aronsson'
_journal_name_full_name
;
 Acta Chemica Scandinavica
;
_journal_volume 17
_journal_year 1963
_journal_page_first 2036
_journal_page_last 2050
_publ_Section_title
;
 The Crystal Structure of RuB$_{2}$, OsB$_{2}$, and IrB$_{1.35}$ and Some General Comments on the Crystal Chemistry of Borides in the Composition Range MeB - MeB$_{3}$
;

_aflow_title 'RuB$_{2}$ Structure'
_aflow_proto 'A2B_oP6_59_f_a'
_aflow_params 'a,b/a,c/a,z_{1},x_{2},z_{2}'
_aflow_params_values '4.645,0.616792249731,0.870828848224,0.1508,0.059,0.639'
_aflow_Strukturbericht 'None'
_aflow_Pearson 'oP6'

_symmetry_space_group_name_H-M "P 21/m 21/m 2/n (origin choice 2)"
_symmetry_Int_Tables_number 59
 
_cell_length_a    4.64500
_cell_length_b    2.86500
_cell_length_c    4.04500
_cell_angle_alpha 90.00000
_cell_angle_beta  90.00000
_cell_angle_gamma 90.00000
 
loop_
_space_group_symop_id
_space_group_symop_operation_xyz
1 x,y,z
2 x+1/2,-y,-z
3 -x,y+1/2,-z
4 -x+1/2,-y+1/2,z
5 -x,-y,-z
6 -x+1/2,y,z
7 x,-y+1/2,z
8 x+1/2,y+1/2,-z
 
loop_
_atom_site_label
_atom_site_type_symbol
_atom_site_symmetry_multiplicity
_atom_site_Wyckoff_label
_atom_site_fract_x
_atom_site_fract_y
_atom_site_fract_z
_atom_site_occupancy
Ru1 Ru 2 a 0.25000 0.25000 0.15080 1.00000
B1 B 4 f 0.05900 0.25000 0.63900 1.00000