# CIF file 
data_findsym-output
_audit_creation_method FINDSYM

_chemical_name_mineral 'O2Te'
_chemical_formula_sum 'O2 Te'

loop_
_publ_author_name
 'J. C. {Champarnaud-Mesjard}'
 'S. Blanchandin'
 'P. Thomas'
 'A. Mirgorodsky'
 'T. {Merle-M\\'{e}jean}'
 'B. Frit'
_journal_name_full_name
;
 Journal of Physics and Chemistry of Solids
;
_journal_volume 61
_journal_year 2000
_journal_page_first 1499
_journal_page_last 1507
_publ_Section_title
;
 Crystal structure, Raman spectrum and lattice dynamics of a new metastable form of tellurium dioxide: $\gamma$-TeO$_{2}$
;

# Found in {\em Ab initio} study of the vibrational properties of crystalline TeO$_{2}$: The $\alpha$, $\beta$, and $\gamma$ phases, 2006

_aflow_title '$\gamma$-TeO$_{2}$ Structure'
_aflow_proto 'A2B_oP12_18_2c_c'
_aflow_params 'a,b/a,c/a,x_{1},y_{1},z_{1},x_{2},y_{2},z_{2},x_{3},y_{3},z_{3}'
_aflow_params_values '4.898,1.75091874234,0.888321763985,0.759,0.281,0.173,0.855,0.036,0.727,-0.0304,0.1016,0.1358'
_aflow_Strukturbericht 'None'
_aflow_Pearson 'oP12'

_symmetry_space_group_name_H-M "P 21 21 2"
_symmetry_Int_Tables_number 18
 
_cell_length_a    4.89800
_cell_length_b    8.57600
_cell_length_c    4.35100
_cell_angle_alpha 90.00000
_cell_angle_beta  90.00000
_cell_angle_gamma 90.00000
 
loop_
_space_group_symop_id
_space_group_symop_operation_xyz
1 x,y,z
2 x+1/2,-y+1/2,-z
3 -x+1/2,y+1/2,-z
4 -x,-y,z
 
loop_
_atom_site_label
_atom_site_type_symbol
_atom_site_symmetry_multiplicity
_atom_site_Wyckoff_label
_atom_site_fract_x
_atom_site_fract_y
_atom_site_fract_z
_atom_site_occupancy
O1 O 4 c 0.75900 0.28100 0.17300 1.00000
O2 O 4 c 0.85500 0.03600 0.72700 1.00000
Te1 Te 4 c -0.03040 0.10160 0.13580 1.00000