# CIF file 
data_findsym-output
_audit_creation_method FINDSYM

_chemical_name_mineral 'O2Pb'
_chemical_formula_sum 'O2 Pb'

loop_
_publ_author_name
 'R. J. Hill'
_journal_name_full_name
;
 Materials Research Bulletin
;
_journal_volume 17
_journal_year 1982
_journal_page_first 769
_journal_page_last 784
_publ_Section_title
;
 The Crystal Structures of Lead Dioxides from the Positive Plate of the Lead/Acid Battery
;

# Found in Pearson's Handbook of Crystallographic Data for Intermetallic Phases, 1991

_aflow_title '$\alpha$-PbO$_{2}$ Structure'
_aflow_proto 'A2B_oP12_60_d_c'
_aflow_params 'a,b/a,c/a,y_{1},x_{2},y_{2},z_{2}'
_aflow_params_values '4.9898,1.19191149946,1.09535452323,0.1779,0.2685,0.401,0.0248'
_aflow_Strukturbericht 'None'
_aflow_Pearson 'oP12'

_symmetry_space_group_name_H-M "P 21/b 2/c 21/n"
_symmetry_Int_Tables_number 60
 
_cell_length_a    4.98980
_cell_length_b    5.94740
_cell_length_c    5.46560
_cell_angle_alpha 90.00000
_cell_angle_beta  90.00000
_cell_angle_gamma 90.00000
 
loop_
_space_group_symop_id
_space_group_symop_operation_xyz
1 x,y,z
2 x+1/2,-y+1/2,-z
3 -x,y,-z+1/2
4 -x+1/2,-y+1/2,z+1/2
5 -x,-y,-z
6 -x+1/2,y+1/2,z
7 x,-y,z+1/2
8 x+1/2,y+1/2,-z+1/2
 
loop_
_atom_site_label
_atom_site_type_symbol
_atom_site_symmetry_multiplicity
_atom_site_Wyckoff_label
_atom_site_fract_x
_atom_site_fract_y
_atom_site_fract_z
_atom_site_occupancy
Pb1 Pb 4 c 0.00000 0.17790 0.25000 0.49000
O1 O 8 d 0.26850 0.40100 0.02480 1.00000