# CIF file 
data_findsym-output
_audit_creation_method FINDSYM

_chemical_name_mineral 'F2HK'
_chemical_formula_sum 'F2 H K'

loop_
_publ_author_name
 'J. A. Ibers'
_journal_name_full_name
;
 Journal of Chemical Physics
;
_journal_volume 40
_journal_year 1964
_journal_page_first 402
_journal_page_last 404
_publ_Section_title
;
 Refinement of Peterson and Levy\'s Neutron Diffraction Data on KHF$_{2}$
;

_aflow_title 'KHF$_{2}$ ($F5_{2}$) Structure'
_aflow_proto 'A2BC_tI16_140_h_d_a'
_aflow_params 'a,c/a,x_{3}'
_aflow_params_values '5.67,1.20105820106,0.142'
_aflow_Strukturbericht '$F5_{2}$'
_aflow_Pearson 'tI16'

_symmetry_space_group_name_H-M "I 4/m 2/c 2/m"
_symmetry_Int_Tables_number 140
 
_cell_length_a    5.67000
_cell_length_b    5.67000
_cell_length_c    6.81000
_cell_angle_alpha 90.00000
_cell_angle_beta  90.00000
_cell_angle_gamma 90.00000
 
loop_
_space_group_symop_id
_space_group_symop_operation_xyz
1 x,y,z
2 x,-y,-z+1/2
3 -x,y,-z+1/2
4 -x,-y,z
5 -y,-x,-z+1/2
6 -y,x,z
7 y,-x,z
8 y,x,-z+1/2
9 -x,-y,-z
10 -x,y,z+1/2
11 x,-y,z+1/2
12 x,y,-z
13 y,x,z+1/2
14 y,-x,-z
15 -y,x,-z
16 -y,-x,z+1/2
17 x+1/2,y+1/2,z+1/2
18 x+1/2,-y+1/2,-z
19 -x+1/2,y+1/2,-z
20 -x+1/2,-y+1/2,z+1/2
21 -y+1/2,-x+1/2,-z
22 -y+1/2,x+1/2,z+1/2
23 y+1/2,-x+1/2,z+1/2
24 y+1/2,x+1/2,-z
25 -x+1/2,-y+1/2,-z+1/2
26 -x+1/2,y+1/2,z
27 x+1/2,-y+1/2,z
28 x+1/2,y+1/2,-z+1/2
29 y+1/2,x+1/2,z
30 y+1/2,-x+1/2,-z+1/2
31 -y+1/2,x+1/2,-z+1/2
32 -y+1/2,-x+1/2,z
 
loop_
_atom_site_label
_atom_site_type_symbol
_atom_site_symmetry_multiplicity
_atom_site_Wyckoff_label
_atom_site_fract_x
_atom_site_fract_y
_atom_site_fract_z
_atom_site_occupancy
K1 K 4 a 0.00000 0.00000 0.25000 1.00000
H1 H 4 d 0.00000 0.50000 0.00000 1.00000
F1 F 8 h 0.14200 0.64200 0.00000 1.00000