# CIF file 
data_findsym-output
_audit_creation_method FINDSYM

_chemical_name_mineral 'B2CaO4'
_chemical_formula_sum 'B2 Ca O4'

loop_
_publ_author_name
 'M. Marezio'
 'H. A. Plettinger'
 'W. H. Zachariasen'
_journal_name_full_name
;
 Acta Cristallographica
;
_journal_volume 16
_journal_year 1963
_journal_page_first 390
_journal_page_last 392
_publ_Section_title
;
 Refinement of the calcium metaborate structure
;

# Found in The crystal structure of the high-pressure phase CaB$_{2}$O$_{4}$(IV), and polymorphism in CaB$_{2}$O$_{4}$, 1969

_aflow_title 'CaB$_{2}$O$_{4}$ I ($E3_{2}$) Structure'
_aflow_proto 'A2BC4_oP28_60_d_c_2d'
_aflow_params 'a,b/a,c/a,y_{1},x_{2},y_{2},z_{2},x_{3},y_{3},z_{3},x_{4},y_{4},z_{4}'
_aflow_params_values '11.604,0.369269217511,0.535504998276,0.2726,0.1924,0.8296,0.1258,0.0862,0.7268,0.0917,0.2078,0.1485,0.1478'
_aflow_Strukturbericht '$E3_{2}$'
_aflow_Pearson 'oP28'

_symmetry_space_group_name_H-M "P 21/b 2/c 21/n"
_symmetry_Int_Tables_number 60
 
_cell_length_a    11.60400
_cell_length_b    4.28500
_cell_length_c    6.21400
_cell_angle_alpha 90.00000
_cell_angle_beta  90.00000
_cell_angle_gamma 90.00000
 
loop_
_space_group_symop_id
_space_group_symop_operation_xyz
1 x,y,z
2 x+1/2,-y+1/2,-z
3 -x,y,-z+1/2
4 -x+1/2,-y+1/2,z+1/2
5 -x,-y,-z
6 -x+1/2,y+1/2,z
7 x,-y,z+1/2
8 x+1/2,y+1/2,-z+1/2
 
loop_
_atom_site_label
_atom_site_type_symbol
_atom_site_symmetry_multiplicity
_atom_site_Wyckoff_label
_atom_site_fract_x
_atom_site_fract_y
_atom_site_fract_z
_atom_site_occupancy
Ca1 Ca 4 c 0.00000 0.27260 0.25000 1.00000
B1 B 8 d 0.19240 0.82960 0.12580 1.00000
O1 O 8 d 0.08620 0.72680 0.09170 1.00000
O2 O 8 d 0.20780 0.14850 0.14780 1.00000