# CIF file 
data_findsym-output
_audit_creation_method FINDSYM

_chemical_name_mineral 'Cl2(H2O)(NH3)4Pd'
_chemical_formula_sum 'Cl2 (H2O) (NH3)4 Pd'

loop_
_publ_author_name
 'B. N. Dickinson'
_journal_name_full_name
;
 Zeitschrift f{\"u}r Kristallographie - Crystalline Materials
;
_journal_volume 88
_journal_year 1934
_journal_page_first 281
_journal_page_last 297
_publ_Section_title
;
 The Crystal Structure of Tetramminopalladous Chloride Pd(NH$_{3}$)$_{4}$Cl$_{2}$$\cdot$H$_{2}$O
;

_aflow_title 'Pd(NH$_{3}$)$_{4}$Cl$_{2}$$\cdot$H$_{2}$O ($H4_{9}$) Structure'
_aflow_proto 'A2BC4D_tP16_127_h_d_i_a'
_aflow_params 'a,c/a,x_{3},x_{4},y_{4}'
_aflow_params_values '10.302,0.42127742186,0.285,0.194,0.027'
_aflow_Strukturbericht '$H4_{9}$'
_aflow_Pearson 'tP16'

_symmetry_space_group_name_H-M "P 4/m 21/b 2/m"
_symmetry_Int_Tables_number 127
 
_cell_length_a    10.30200
_cell_length_b    10.30200
_cell_length_c    4.34000
_cell_angle_alpha 90.00000
_cell_angle_beta  90.00000
_cell_angle_gamma 90.00000
 
loop_
_space_group_symop_id
_space_group_symop_operation_xyz
1 x,y,z
2 x+1/2,-y+1/2,-z
3 -x+1/2,y+1/2,-z
4 -x,-y,z
5 -y+1/2,-x+1/2,-z
6 -y,x,z
7 y,-x,z
8 y+1/2,x+1/2,-z
9 -x,-y,-z
10 -x+1/2,y+1/2,z
11 x+1/2,-y+1/2,z
12 x,y,-z
13 y+1/2,x+1/2,z
14 y,-x,-z
15 -y,x,-z
16 -y+1/2,-x+1/2,z
 
loop_
_atom_site_label
_atom_site_type_symbol
_atom_site_symmetry_multiplicity
_atom_site_Wyckoff_label
_atom_site_fract_x
_atom_site_fract_y
_atom_site_fract_z
_atom_site_occupancy
Pd1 Pd 2 a 0.00000 0.00000 0.00000 1.00000
H2O1 H2O 2 d 0.00000 0.50000 0.00000 1.00000
Cl1 Cl 4 h 0.28500 0.78500 0.50000 1.00000
NH31 NH3 8 i 0.19400 0.02700 0.00000 1.00000