# CIF file 
data_findsym-output
_audit_creation_method FINDSYM

_chemical_name_mineral 'Al2CuMg'
_chemical_formula_sum 'Al2 Cu Mg'

loop_
_publ_author_name
 'B. Heying'
 'R.-D. Hoffmann'
 'R. P\"{o}ttgen'
_journal_name_full_name
;
 Zeitschrift f{\"u}r Naturforschung B
;
_journal_volume 60
_journal_year 2005
_journal_page_first 491
_journal_page_last 494
_publ_Section_title
;
 Structure Refinement of the S-Phase Precipitate MgCuAl$_{2}$
;

_aflow_title 'MgCuAl$_{2}$ ($E1_{a}$) Structure'
_aflow_proto 'A2BC_oC16_63_f_c_c'
_aflow_params 'a,b/a,c/a,y_{1},y_{2},y_{3},z_{3}'
_aflow_params_values '4.0119,2.3093795957,1.77571724121,0.7801,0.0651,0.3558,0.0556'
_aflow_Strukturbericht '$E1_{a}$'
_aflow_Pearson 'oC16'

_symmetry_space_group_name_H-M "C 2/m 2/c 21/m"
_symmetry_Int_Tables_number 63
 
_cell_length_a    4.01190
_cell_length_b    9.26500
_cell_length_c    7.12400
_cell_angle_alpha 90.00000
_cell_angle_beta  90.00000
_cell_angle_gamma 90.00000
 
loop_
_space_group_symop_id
_space_group_symop_operation_xyz
1 x,y,z
2 x,-y,-z
3 -x,y,-z+1/2
4 -x,-y,z+1/2
5 -x,-y,-z
6 -x,y,z
7 x,-y,z+1/2
8 x,y,-z+1/2
9 x+1/2,y+1/2,z
10 x+1/2,-y+1/2,-z
11 -x+1/2,y+1/2,-z+1/2
12 -x+1/2,-y+1/2,z+1/2
13 -x+1/2,-y+1/2,-z
14 -x+1/2,y+1/2,z
15 x+1/2,-y+1/2,z+1/2
16 x+1/2,y+1/2,-z+1/2
 
loop_
_atom_site_label
_atom_site_type_symbol
_atom_site_symmetry_multiplicity
_atom_site_Wyckoff_label
_atom_site_fract_x
_atom_site_fract_y
_atom_site_fract_z
_atom_site_occupancy
Cu1 Cu 4 c 0.00000 0.78010 0.25000 1.00000
Mg1 Mg 4 c 0.00000 0.06510 0.25000 1.00000
Al1 Al 8 f 0.00000 0.35580 0.05560 1.00000
