# CIF file 
data_findsym-output
_audit_creation_method FINDSYM

_chemical_name_mineral 'Muscovite'
_chemical_formula_sum 'Al2 K O10 (OH)2 Si4'

loop_
_publ_author_name
 'S. M. Richardson'
 'J. W. {Richardson, Jr.}'
_journal_name_full_name
;
 American Mineralogist
;
_journal_volume 67
_journal_year 1982
_journal_page_first 69
_journal_page_last 75
_publ_Section_title
;
 Crystal structure of a pink muscovite from Archer\'s Post, Kenya: Implications for reverse pleochroism in dioctahedral micas
;

# Found in The American Mineralogist Crystal Structure Database, 2003

_aflow_title 'Muscovite (KH$_{2}$Al$_{3}$Si$_{3}$O$_{12}$, $S5_{1}$) Structure'
_aflow_proto 'A2BC10D2E4_mC76_15_f_e_5f_f_2f'
_aflow_params 'a,b/a,c/a,\beta,y_{1},x_{2},y_{2},z_{2},x_{3},y_{3},z_{3},x_{4},y_{4},z_{4},x_{5},y_{5},z_{5},x_{6},y_{6},z_{6},x_{7},y_{7},z_{7},x_{8},y_{8},z_{8},x_{9},y_{9},z_{9},x_{10},y_{10},z_{10}'
_aflow_params_values '5.1988,1.73628529661,3.86739247519,95.782,0.0992,0.2506,0.0838,0.0002,0.3872,0.2525,0.0543,0.0366,0.4431,0.4459,0.4178,0.0931,0.1685,0.2475,0.3712,0.1685,0.2509,0.3132,0.3424,0.0422,0.0622,0.4492,0.451,0.2587,0.1355,0.0354,0.4298,0.3646'
_aflow_Strukturbericht '$S5_{1}$'
_aflow_Pearson 'mC76'

_symmetry_space_group_name_H-M "C 1 2/c 1"
_symmetry_Int_Tables_number 15
 
_cell_length_a    5.19880
_cell_length_b    9.02660
_cell_length_c    20.10580
_cell_angle_alpha 90.00000
_cell_angle_beta  95.78200
_cell_angle_gamma 90.00000
 
loop_
_space_group_symop_id
_space_group_symop_operation_xyz
1 x,y,z
2 -x,y,-z+1/2
3 -x,-y,-z
4 x,-y,z+1/2
5 x+1/2,y+1/2,z
6 -x+1/2,y+1/2,-z+1/2
7 -x+1/2,-y+1/2,-z
8 x+1/2,-y+1/2,z+1/2
 
loop_
_atom_site_label
_atom_site_type_symbol
_atom_site_symmetry_multiplicity
_atom_site_Wyckoff_label
_atom_site_fract_x
_atom_site_fract_y
_atom_site_fract_z
_atom_site_occupancy
K1 K 4 e 0.00000 0.09920 0.25000 1.00000
Al1 Al 8 f 0.25060 0.08380 0.00020 1.00000
O1 O 8 f 0.38720 0.25250 0.05430 1.00000
O2 O 8 f 0.03660 0.44310 0.44590 1.00000
O3 O 8 f 0.41780 0.09310 0.16850 1.00000
O4 O 8 f 0.24750 0.37120 0.16850 1.00000
O5 O 8 f 0.25090 0.31320 0.34240 1.00000
OH1 OH 8 f 0.04220 0.06220 0.44920 1.00000
Si1 Si 8 f 0.45100 0.25870 0.13550 1.00000
Si2 Si 8 f 0.03540 0.42980 0.36460 1.00000