# CIF file 
data_findsym-output
_audit_creation_method FINDSYM

_chemical_name_mineral 'B2CaO4'
_chemical_formula_sum 'B2 Ca O4'

loop_
_publ_author_name
 'M. Marezio'
 'J. P. Remeika'
 'P. D. Dernier'
_journal_name_full_name
;
 Acta Crystallographica Section B: Structural Science
;
_journal_volume 25
_journal_year 1969
_journal_page_first 965
_journal_page_last 970
_publ_Section_title
;
 The crystal structure of the high-pressure phase CaB$_{2}$O$_{4}$(IV), and polymorphism in CaB$_{2}$O$_{4}$
;

_aflow_title 'CaB$_{2}$O$_{4}$ (IV) Structure'
_aflow_proto 'A2BC4_cP84_205_d_ac_2d'
_aflow_params 'a,x_{2},x_{3},y_{3},z_{3},x_{4},y_{4},z_{4},x_{5},y_{5},z_{5}'
_aflow_params_values '9.008,0.37305,0.1189,0.1901,0.3457,0.3336,0.2692,0.1208,0.0906,0.2823,0.0064'
_aflow_Strukturbericht 'None'
_aflow_Pearson 'cP84'

_symmetry_space_group_name_H-M "P 21/a -3"
_symmetry_Int_Tables_number 205
 
_cell_length_a    9.00800
_cell_length_b    9.00800
_cell_length_c    9.00800
_cell_angle_alpha 90.00000
_cell_angle_beta  90.00000
_cell_angle_gamma 90.00000
 
loop_
_space_group_symop_id
_space_group_symop_operation_xyz
1 x,y,z
2 x+1/2,-y+1/2,-z
3 -x,y+1/2,-z+1/2
4 -x+1/2,-y,z+1/2
5 y,z,x
6 y+1/2,-z+1/2,-x
7 -y,z+1/2,-x+1/2
8 -y+1/2,-z,x+1/2
9 z,x,y
10 z+1/2,-x+1/2,-y
11 -z,x+1/2,-y+1/2
12 -z+1/2,-x,y+1/2
13 -x,-y,-z
14 -x+1/2,y+1/2,z
15 x,-y+1/2,z+1/2
16 x+1/2,y,-z+1/2
17 -y,-z,-x
18 -y+1/2,z+1/2,x
19 y,-z+1/2,x+1/2
20 y+1/2,z,-x+1/2
21 -z,-x,-y
22 -z+1/2,x+1/2,y
23 z,-x+1/2,y+1/2
24 z+1/2,x,-y+1/2
 
loop_
_atom_site_label
_atom_site_type_symbol
_atom_site_symmetry_multiplicity
_atom_site_Wyckoff_label
_atom_site_fract_x
_atom_site_fract_y
_atom_site_fract_z
_atom_site_occupancy
Ca1 Ca 4 a 0.00000 0.00000 0.00000 1.00000
Ca2 Ca 8 c 0.37305 0.37305 0.37305 1.00000
B1 B 24 d 0.11890 0.19010 0.34570 1.00000
O1 O 24 d 0.33360 0.26920 0.12080 1.00000
O2 O 24 d 0.09060 0.28230 0.00640 1.00000