# AFLOW.org Repositories
# CuFeSSn/A2BCD4_tI16_82_ac_b_d_g-001.ABCD params=-1,2.00313248572,0.7434,0.256,0.6278 SG=82 [ANRL doi: 10.1016/j.commatsci.2017.01.017 (part 1), doi: 10.1016/j.commatsci.2018.10.043 (part 2)]
data_CuFeSSn
_pd_phase_name A2BCD4_tI16_82_ac_b_d_g-001.ABCD

_chemical_name_mineral 'Kesterite'
_chemical_formula_sum 'Cu2 Fe S Sn4'

loop_
_publ_author_name
 'S. R. Hall'
 'J. T. Szyma{\\'n}ski'
 'J. M. Stewart'
_journal_name_full_name
;
 Canadian Mineralogist
;
_journal_volume 16
_journal_year 1978
_journal_page_first 131
_journal_page_last 137
_publ_Section_title
;
 Kesterite, Cu$_{2}$(Zn,Fe)SnS$_{4}$, and stannite, Cu$_{2}$(Fe,Zn)SnS$_{4}$, structurally similar but distinct minerals
;

_aflow_title 'Kesterite [Cu$_{2}$(Zn,Fe)SnS$_{4}$] Structure'
_aflow_proto 'A2BCD4_tI16_82_ac_b_d_g'
_aflow_params 'a,c/a,x_{5},y_{5},z_{5}'
_aflow_params_values '5.428437725,2.00313248571,0.7434,0.256,0.6278'
_aflow_Strukturbericht 'None'
_aflow_Pearson 'tI16'

_cell_length_a  5.4284377250
_cell_length_b  5.4284377250
_cell_length_c  10.8738799536
_cell_angle_alpha  90.0000000000
_cell_angle_beta  90.0000000000
_cell_angle_gamma  90.0000000000
_symmetry_space_group_name_H-M  'I-4'
_symmetry_Int_Tables_Number  82
loop_
_symmetry_equiv_pos_site_id
_symmetry_equiv_pos_as_xyz
  1  x,y,z
  2  -x,-y,z
  3  y,-x,-z
  4  -y,x,-z
  5  x+1/2,y+1/2,z+1/2
  6  -x+1/2,-y+1/2,z+1/2
  7  y+1/2,-x+1/2,-z+1/2
  8  -y+1/2,x+1/2,-z+1/2
loop_
 _atom_site_label
 _atom_site_occupancy
 _atom_site_fract_x
 _atom_site_fract_y
 _atom_site_fract_z
 _atom_site_thermal_displace_type
 _atom_site_B_iso_or_equiv
 _atom_site_type_symbol
 _atom_site_symmetry_multiplicity
 _atom_site_Wyckoff_label
Cu1 1.0000000000 -0.0000000000 0.0000000000 0.0000000000 Biso 1.0 Cu 2 a
Fe1 1.0000000000 0.0000000000 0.0000000000 0.5000000000 Biso 1.0 Fe 2 b
Cu2 1.0000000000 -0.0000000000 0.5000000000 0.2500000000 Biso 1.0 Cu 2 c
S1 1.0000000000 0.0000000000 0.5000000000 0.7500000000 Biso 1.0 S 2 d
Sn1 1.0000000000 0.7434000000 0.2560000000 0.6278000000 Biso 1.0 Sn 8 g