# CIF file 
data_findsym-output
_audit_creation_method FINDSYM

_chemical_name_mineral 'B2BaO4'
_chemical_formula_sum 'B2 Ba O4'

loop_
_publ_author_name
 'R. Fr\"{o}hlich'
_journal_name_full_name
;
 Zeitschrift f{\"u}r Kristallographie - Crystalline Materials
;
_journal_volume 168
_journal_year 1984
_journal_page_first 109
_journal_page_last 112
_publ_Section_title
;
 Crystal Structure of the low-temperature form of BaB$_{2}$O$_{4}$
;

_aflow_title '$\alpha$-BaB$_{2}$O$_{4}$ (Low-Temperature) Structure'
_aflow_proto 'A2BC4_hR42_161_2b_b_4b'
_aflow_params 'a,c/a,x_{1},y_{1},z_{1},x_{2},y_{2},z_{2},x_{3},y_{3},z_{3},x_{4},y_{4},z_{4},x_{5},y_{5},z_{5},x_{6},y_{6},z_{6},x_{7},y_{7},z_{7}'
_aflow_params_values '12.519,1.01629523125,0.5427,-0.4113,0.3732,0.2639,0.3403,0.11859,0.7375,0.01891,-0.62672,0.4582,-0.5851,0.62499,0.6707,0.2584,-0.4056,0.3591,0.2197,0.14411,0.7788,-0.5047,-0.07361'
_aflow_Strukturbericht 'None'
_aflow_Pearson 'hR42'

_symmetry_space_group_name_H-M "R 3 c (hexagonal axes)"
_symmetry_Int_Tables_number 161
 
_cell_length_a    12.51900
_cell_length_b    12.51900
_cell_length_c    12.72300
_cell_angle_alpha 90.00000
_cell_angle_beta  90.00000
_cell_angle_gamma 120.00000
 
loop_
_space_group_symop_id
_space_group_symop_operation_xyz
1 x,y,z
2 -y,x-y,z
3 -x+y,-x,z
4 -y,-x,z+1/2
5 x,x-y,z+1/2
6 -x+y,y,z+1/2
7 x+1/3,y+2/3,z+2/3
8 -y+1/3,x-y+2/3,z+2/3
9 -x+y+1/3,-x+2/3,z+2/3
10 -y+1/3,-x+2/3,z+1/6
11 x+1/3,x-y+2/3,z+1/6
12 -x+y+1/3,y+2/3,z+1/6
13 x+2/3,y+1/3,z+1/3
14 -y+2/3,x-y+1/3,z+1/3
15 -x+y+2/3,-x+1/3,z+1/3
16 -y+2/3,-x+1/3,z+5/6
17 x+2/3,x-y+1/3,z+5/6
18 -x+y+2/3,y+1/3,z+5/6
 
loop_
_atom_site_label
_atom_site_type_symbol
_atom_site_symmetry_multiplicity
_atom_site_Wyckoff_label
_atom_site_fract_x
_atom_site_fract_y
_atom_site_fract_z
_atom_site_occupancy
B1 B 18 b 0.37450 0.57950 0.16820 1.00000
B2 B 18 b 0.02297 -0.09937 0.24093 1.00000
Ba1 Ba 18 b 0.69427 0.02432 0.04323 1.00000
O1 O 18 b 0.29217 0.75113 0.16603 1.00000
O2 O 18 b 0.49620 -0.08390 0.17450 1.00000
O3 O 18 b 0.11813 0.02127 0.24097 1.00000
O4 O 18 b 0.71197 0.57153 0.06683 1.00000