# CIF file 
data_findsym-output
_audit_creation_method FINDSYM

_chemical_name_mineral 'F_{2-x}HxMnOx'
_chemical_formula_sum 'H2 Mn O2'

loop_
_publ_author_name
 'H. B. Yahia'
 'M. Shikano'
 'H. Kobayashi'
 'M. Avdeev'
 'S. Liu'
 'C. D. Ling'
_journal_name_full_name
;
 Physical Chemistry Chemical Physics
;
_journal_volume 15
_journal_year 2013
_journal_page_first 13061
_journal_page_last 13069
_publ_Section_title
;
 Synthesis and characterization of the crystal structure and magnetic properties of the hydroxyfluoride MnF$_{2-x}$(OH)$_{x}$ ($x \approx 0.8$)
;

_aflow_title 'MnF$_{2-x}$(OH)$_{x}$ Structure'
_aflow_proto 'A2BC2_oP10_34_c_a_c'
_aflow_params 'a,b/a,c/a,z_{1},x_{2},y_{2},z_{2},x_{3},y_{3},z_{3}'
_aflow_params_values '4.71143,1.11290415012,0.689459463475,0.5,0.425,0.0287,0.543,0.2511,0.1533,0.504'
_aflow_Strukturbericht 'None'
_aflow_Pearson 'oP10'

_symmetry_space_group_name_H-M "P n n 2"
_symmetry_Int_Tables_number 34
 
_cell_length_a    4.71143
_cell_length_b    5.24337
_cell_length_c    3.24834
_cell_angle_alpha 90.00000
_cell_angle_beta  90.00000
_cell_angle_gamma 90.00000
 
loop_
_space_group_symop_id
_space_group_symop_operation_xyz
1 x,y,z
2 -x,-y,z
3 -x+1/2,y+1/2,z+1/2
4 x+1/2,-y+1/2,z+1/2
 
loop_
_atom_site_label
_atom_site_type_symbol
_atom_site_symmetry_multiplicity
_atom_site_Wyckoff_label
_atom_site_fract_x
_atom_site_fract_y
_atom_site_fract_z
_atom_site_occupancy
Mn1 Mn 2 a 0.00000 0.00000 0.50000 1.00000
H1 H 4 c 0.42500 0.02870 0.54300 1.00000
O1 O 4 c 0.25110 0.15330 0.50400 1.00000
