# CIF file 
data_findsym-output
_audit_creation_method FINDSYM

_chemical_name_mineral 'Cl3H15N5Rh'
_chemical_formula_sum 'Cl3 H15 N5 Rh'

loop_
_publ_author_name
 'R. S. Evans'
 'E. A. Hopcus'
 'J. Bordner'
 'A. F. Schreiner'
_journal_name_full_name
;
 Journal of Crystal and Molecular Structure
;
_journal_volume 3
_journal_year 1973
_journal_page_first 235
_journal_page_last 245
_publ_Section_title
;
 Molecular and crystal structures of halopentaamminerhodium-(III) complexes, [Rh(NH$_{3}$)$_{5}$Cl]Cl$_{2}$ and [Rh(NH$_{3}$)$_{5}$Br]Br$_{2}$
;

# Found in Comparisons of $\pi$-bonding and hydrogen bonding in isomorphous compounds: [$M$(NH$_{3}$)$_{5}$Cl]Cl$_{2}$ ($M$=Cr, Co, Rh, Ir, Ru, Os), 1986

_aflow_title 'RhCl$_{2}$(NH$_{3}$)$_{5}$Cl ($J1_{8}$) Structure'
_aflow_proto 'A3B15C5D_oP96_62_cd_3c6d_3cd_c'
_aflow_params 'a,b/a,c/a,x_{1},z_{1},x_{2},z_{2},x_{3},z_{3},x_{4},z_{4},x_{5},z_{5},x_{6},z_{6},x_{7},z_{7},x_{8},z_{8},x_{9},y_{9},z_{9},x_{10},y_{10},z_{10},x_{11},y_{11},z_{11},x_{12},y_{12},z_{12},x_{13},y_{13},z_{13},x_{14},y_{14},z_{14},x_{15},y_{15},z_{15},x_{16},y_{16},z_{16}'
_aflow_params_values '13.36,0.782934131737,0.504565868263,0.4705,-0.0482,0.771,-0.003,0.527,0.527,0.778,0.337,0.7207,0.3777,0.7041,-0.0519,0.5046,0.4129,0.6038,0.1805,0.1484,-0.0018,0.8394,0.396,0.509,-0.06,0.357,0.52,0.739,0.452,0.528,0.798,0.297,0.696,0.125,0.522,0.807,0.567,0.274,0.809,0.541,0.3975,0.5534,0.8224'
_aflow_Strukturbericht '$J1_{8}$'
_aflow_Pearson 'oP96'

_symmetry_space_group_name_H-M "P 21/n 21/m 21/a"
_symmetry_Int_Tables_number 62
 
_cell_length_a    13.36000
_cell_length_b    10.46000
_cell_length_c    6.74100
_cell_angle_alpha 90.00000
_cell_angle_beta  90.00000
_cell_angle_gamma 90.00000
 
loop_
_space_group_symop_id
_space_group_symop_operation_xyz
1 x,y,z
2 x+1/2,-y+1/2,-z+1/2
3 -x,y+1/2,-z
4 -x+1/2,-y,z+1/2
5 -x,-y,-z
6 -x+1/2,y+1/2,z+1/2
7 x,-y+1/2,z
8 x+1/2,y,-z+1/2
 
loop_
_atom_site_label
_atom_site_type_symbol
_atom_site_symmetry_multiplicity
_atom_site_Wyckoff_label
_atom_site_fract_x
_atom_site_fract_y
_atom_site_fract_z
_atom_site_occupancy
Cl1 Cl 4 c 0.47050 0.25000 -0.04820 1.00000
H1 H 4 c 0.77100 0.25000 -0.00300 1.00000
H2 H 4 c 0.52700 0.25000 0.52700 1.00000
H3 H 4 c 0.77800 0.25000 0.33700 1.00000
N1 N 4 c 0.72070 0.25000 0.37770 1.00000
N2 N 4 c 0.70410 0.25000 -0.05190 1.00000
N3 N 4 c 0.50460 0.25000 0.41290 1.00000
Rh1 Rh 4 c 0.60380 0.25000 0.18050 1.00000
Cl2 Cl 8 d 0.14840 -0.00180 0.83940 1.00000
H4 H 8 d 0.39600 0.50900 -0.06000 1.00000
H5 H 8 d 0.35700 0.52000 0.73900 1.00000
H6 H 8 d 0.45200 0.52800 0.79800 1.00000
H7 H 8 d 0.29700 0.69600 0.12500 1.00000
H8 H 8 d 0.52200 0.80700 0.56700 1.00000
H9 H 8 d 0.27400 0.80900 0.54100 1.00000
N4 N 8 d 0.39750 0.55340 0.82240 1.00000