# CIF file 
data_findsym-output
_audit_creation_method FINDSYM

_chemical_name_mineral 'Al3Zr2'
_chemical_formula_sum 'Al3 Zr2'

loop_
_publ_author_name
 'T. J. Renouf'
 'C. A. Beevers'
_journal_name_full_name
;
 Acta Cristallographica
;
_journal_volume 14
_journal_year 1961
_journal_page_first 469
_journal_page_last 472
_publ_Section_title
;
 The Crystal Structure of Zr$_{2}$Al$_{3}$
;

# Found in Crystal Structure Investigations on the Zr-Al and Hf-Al Systems, 1962

_aflow_title 'Zr$_{2}$Al$_{3}$ Structure'
_aflow_proto 'A3B2_oF40_43_ab_b'
_aflow_params 'a,b/a,c/a,z_{1},x_{2},y_{2},z_{2},x_{3},y_{3},z_{3}'
_aflow_params_values '9.601,1.44839079263,0.58014790126,0.125,0.065,0.116,0.5,0.068,0.196,0.0'
_aflow_Strukturbericht 'None'
_aflow_Pearson 'oF40'

_symmetry_space_group_name_H-M "F d d 2"
_symmetry_Int_Tables_number 43
 
_cell_length_a    9.60100
_cell_length_b    13.90600
_cell_length_c    5.57000
_cell_angle_alpha 90.00000
_cell_angle_beta  90.00000
_cell_angle_gamma 90.00000
 
loop_
_space_group_symop_id
_space_group_symop_operation_xyz
1 x,y,z
2 -x,-y,z
3 -x+1/4,y+1/4,z+1/4
4 x+1/4,-y+1/4,z+1/4
5 x,y+1/2,z+1/2
6 -x,-y+1/2,z+1/2
7 -x+1/4,y+3/4,z+3/4
8 x+1/4,-y+3/4,z+3/4
9 x+1/2,y,z+1/2
10 -x+1/2,-y,z+1/2
11 -x+3/4,y+1/4,z+3/4
12 x+3/4,-y+1/4,z+3/4
13 x+1/2,y+1/2,z
14 -x+1/2,-y+1/2,z
15 -x+3/4,y+3/4,z+1/4
16 x+3/4,-y+3/4,z+1/4
 
loop_
_atom_site_label
_atom_site_type_symbol
_atom_site_symmetry_multiplicity
_atom_site_Wyckoff_label
_atom_site_fract_x
_atom_site_fract_y
_atom_site_fract_z
_atom_site_occupancy
Al1 Al 8 a 0.00000 0.00000 0.12500 1.00000
Al2 Al 16 b 0.06500 0.11600 0.50000 1.00000
Zr1 Zr 16 b 0.06800 0.19600 0.00000 1.00000