# CIF file 
data_findsym-output
_audit_creation_method FINDSYM

_chemical_name_mineral 'Th7S12'
_chemical_formula_sum 'S3 Th2'

loop_
_publ_author_name
 'W. H. Zachariasen'
_journal_name_full_name
;
 Acta Cristallographica
;
_journal_volume 2
_journal_year 1949
_journal_page_first 288
_journal_page_last 291
_publ_Section_title
;
 Crystal chemical studies of the 5f-series of elements. IX. The crystal structure of Th$_{7}$S$_{12}$
;

_aflow_title 'Th$_{7}$S$_{12}$ ($D8_{k}$) Structure'
_aflow_proto 'A3B2_hP20_176_2h_ah'
_aflow_params 'a,c/a,x_{2},y_{2},x_{3},y_{3},x_{4},y_{4}'
_aflow_params_values '11.064,0.361713665944,0.375,0.861,0.0,0.765,0.717,0.564'
_aflow_Strukturbericht '$D8_{k}$'
_aflow_Pearson 'hP20'

_symmetry_space_group_name_H-M "P 63/m"
_symmetry_Int_Tables_number 176
 
_cell_length_a    11.06400
_cell_length_b    11.06400
_cell_length_c    4.00200
_cell_angle_alpha 90.00000
_cell_angle_beta  90.00000
_cell_angle_gamma 120.00000
 
loop_
_space_group_symop_id
_space_group_symop_operation_xyz
1 x,y,z
2 x-y,x,z+1/2
3 -y,x-y,z
4 -x,-y,z+1/2
5 -x+y,-x,z
6 y,-x+y,z+1/2
7 -x,-y,-z
8 -x+y,-x,-z+1/2
9 y,-x+y,-z
10 x,y,-z+1/2
11 x-y,x,-z
12 -y,x-y,-z+1/2
 
loop_
_atom_site_label
_atom_site_type_symbol
_atom_site_symmetry_multiplicity
_atom_site_Wyckoff_label
_atom_site_fract_x
_atom_site_fract_y
_atom_site_fract_z
_atom_site_occupancy
Th1 Th 2 a 0.00000 0.00000 0.25000 0.50000
S1 S 6 h 0.37500 0.86100 0.25000 1.00000
S2 S 6 h 0.00000 0.76500 0.25000 1.00000
Th2 Th 6 h 0.71700 0.56400 0.25000 1.00000
