# CIF file 
data_findsym-output
_audit_creation_method FINDSYM

_chemical_name_mineral 'Tysonite'
_chemical_formula_sum 'F3 La'

loop_
_publ_author_name
 'I. Oftedal'
_journal_name_full_name
;
 Zeitschrift f{\"u}r Physik B Condensed Matter
;
_journal_volume 13
_journal_year 1931
_journal_page_first 190
_journal_page_last 200
_publ_Section_title
;
 Zur Kristallstruktur von Tysonit (Ce, La, ...)F$_{3}$
;

# Found in Strukturbericht Band II 1928-1932, 1937

_aflow_title '$D0_{6}$ (Tysonite, LaF$_{3}$) ({\em{obsolete}}) Structure'
_aflow_proto 'A3B_hP24_193_ack_g'
_aflow_params 'a,c/a,x_{3},x_{4},z_{4}'
_aflow_params_values '7.12,1.02247191011,0.34,0.33333,0.075'
_aflow_Strukturbericht '$D0_{6}$'
_aflow_Pearson 'hP24'

_symmetry_space_group_name_H-M "P 63/m 2/c 2/m"
_symmetry_Int_Tables_number 193
 
_cell_length_a    7.12000
_cell_length_b    7.12000
_cell_length_c    7.28000
_cell_angle_alpha 90.00000
_cell_angle_beta  90.00000
_cell_angle_gamma 120.00000
 
loop_
_space_group_symop_id
_space_group_symop_operation_xyz
1 x,y,z
2 x-y,x,z+1/2
3 -y,x-y,z
4 -x,-y,z+1/2
5 -x+y,-x,z
6 y,-x+y,z+1/2
7 x-y,-y,-z+1/2
8 x,x-y,-z
9 y,x,-z+1/2
10 -x+y,y,-z
11 -x,-x+y,-z+1/2
12 -y,-x,-z
13 -x,-y,-z
14 -x+y,-x,-z+1/2
15 y,-x+y,-z
16 x,y,-z+1/2
17 x-y,x,-z
18 -y,x-y,-z+1/2
19 -x+y,y,z+1/2
20 -x,-x+y,z
21 -y,-x,z+1/2
22 x-y,-y,z
23 x,x-y,z+1/2
24 y,x,z
 
loop_
_atom_site_label
_atom_site_type_symbol
_atom_site_symmetry_multiplicity
_atom_site_Wyckoff_label
_atom_site_fract_x
_atom_site_fract_y
_atom_site_fract_z
_atom_site_occupancy
F1 F 2 a 0.00000 0.00000 0.25000 1.00000
F2 F 4 c 0.33333 0.66667 0.25000 1.00000
La1 La 6 g 0.34000 0.00000 0.25000 1.00000
F3 F 12 k 0.33333 0.00000 0.07500 1.00000
