# CIF file 
data_findsym-output
_audit_creation_method FINDSYM

_chemical_name_mineral 'O3W'
_chemical_formula_sum 'O3 W'

loop_
_publ_author_name
 'P. M. Woodward'
 'A. W. Sleight'
 'T. Vogt'
_journal_name_full_name
;
 Journal of Solid State Chemistry
;
_journal_volume 131
_journal_year 1997
_journal_page_first 9
_journal_page_last 17
_publ_Section_title
;
 Ferroelectric Tungsten Trioxide
;

_aflow_title '$D0_{10}$ (WO$_{3}$) ({\em obsolete}) Structure'
_aflow_proto 'A3B_oP16_57_a2d_d'
_aflow_params 'a,b/a,c/a,x_{2},y_{2},x_{3},y_{3},x_{4},y_{4}'
_aflow_params_values '3.8,1.94736842105,1.89473684211,0.0,0.78125,0.5625,-0.03125,0.0625,-0.03125'
_aflow_Strukturbericht '$D0_{10}$'
_aflow_Pearson 'oP16'

_symmetry_space_group_name_H-M "P 2/b 21/c 21/m"
_symmetry_Int_Tables_number 57
 
_cell_length_a    3.80000
_cell_length_b    7.40000
_cell_length_c    7.20000
_cell_angle_alpha 90.00000
_cell_angle_beta  90.00000
_cell_angle_gamma 90.00000
 
loop_
_space_group_symop_id
_space_group_symop_operation_xyz
1 x,y,z
2 x,-y+1/2,-z
3 -x,y+1/2,-z+1/2
4 -x,-y,z+1/2
5 -x,-y,-z
6 -x,y+1/2,z
7 x,-y+1/2,z+1/2
8 x,y,-z+1/2
 
loop_
_atom_site_label
_atom_site_type_symbol
_atom_site_symmetry_multiplicity
_atom_site_Wyckoff_label
_atom_site_fract_x
_atom_site_fract_y
_atom_site_fract_z
_atom_site_occupancy
O1 O 4 a 0.00000 0.00000 0.00000 1.00000
O2 O 4 d 0.00000 0.78125 0.25000 1.00000
O3 O 4 d 0.56250 -0.03125 0.25000 1.00000
W1 W 4 d 0.06250 -0.03125 0.25000 1.00000
