# CIF file 
data_findsym-output
_audit_creation_method FINDSYM

_chemical_name_mineral 'B3Re'
_chemical_formula_sum 'B3 Re'

loop_
_publ_author_name
 'B. Aronsson'
 'E. Stenberg'
 'J. {\AA}selius'
_journal_name_full_name
;
 Acta Chemica Scandinavica
;
_journal_volume 14
_journal_year 1960
_journal_page_first 733
_journal_page_last 741
_publ_Section_title
;
 Borides of Rhenium and the Platinum Metals. The Crystal Structure of Re$_{7}$B$_{3}$, ReB$_{3}$, Rh$_{7}$B$_{3}$, RhB$_{\sim 1.1}$, IrB$_{\sim 1.1}$ and PtB
;

# Found in Pearson's Handbook of Crystallographic Data for Intermetallic Phases, 1991

_aflow_title 'ReB$_{3}$ Structure'
_aflow_proto 'A3B_hP8_194_af_c'
_aflow_params 'a,c/a,z_{3}'
_aflow_params_values '2.9,2.5775862069,0.55'
_aflow_Strukturbericht 'None'
_aflow_Pearson 'hP8'

_symmetry_space_group_name_H-M "P 63/m 2/m 2/c"
_symmetry_Int_Tables_number 194
 
_cell_length_a    2.90000
_cell_length_b    2.90000
_cell_length_c    7.47500
_cell_angle_alpha 90.00000
_cell_angle_beta  90.00000
_cell_angle_gamma 120.00000
 
loop_
_space_group_symop_id
_space_group_symop_operation_xyz
1 x,y,z
2 x-y,x,z+1/2
3 -y,x-y,z
4 -x,-y,z+1/2
5 -x+y,-x,z
6 y,-x+y,z+1/2
7 x-y,-y,-z
8 x,x-y,-z+1/2
9 y,x,-z
10 -x+y,y,-z+1/2
11 -x,-x+y,-z
12 -y,-x,-z+1/2
13 -x,-y,-z
14 -x+y,-x,-z+1/2
15 y,-x+y,-z
16 x,y,-z+1/2
17 x-y,x,-z
18 -y,x-y,-z+1/2
19 -x+y,y,z
20 -x,-x+y,z+1/2
21 -y,-x,z
22 x-y,-y,z+1/2
23 x,x-y,z
24 y,x,z+1/2
 
loop_
_atom_site_label
_atom_site_type_symbol
_atom_site_symmetry_multiplicity
_atom_site_Wyckoff_label
_atom_site_fract_x
_atom_site_fract_y
_atom_site_fract_z
_atom_site_occupancy
B1 B 2 a 0.00000 0.00000 0.00000 1.00000
Re1 Re 2 c 0.33333 0.66667 0.25000 1.00000
B2 B 4 f 0.33333 0.66667 0.55000 1.00000