# CIF file 
data_findsym-output
_audit_creation_method FINDSYM

_chemical_name_mineral 'O3W'
_chemical_formula_sum 'O3 W'

loop_
_publ_author_name
 'P. M. Woodward'
 'A. W. Sleight'
 'T. Vogt'
_journal_name_full_name
;
 Journal of Solid State Chemistry
;
_journal_volume 131
_journal_year 1997
_journal_page_first 9
_journal_page_last 17
_publ_Section_title
;
 Ferroelectric Tungsten Trioxide
;

_aflow_title 'Hexagonal WO$_{3}$ Structure'
_aflow_proto 'A3B_hP12_191_gl_f'
_aflow_params 'a,c/a,x_{3}'
_aflow_params_values '7.298,0.534255960537,0.212'
_aflow_Strukturbericht 'None'
_aflow_Pearson 'hP12'

_symmetry_space_group_name_H-M "P 6/m 2/m 2/m"
_symmetry_Int_Tables_number 191
 
_cell_length_a    7.29800
_cell_length_b    7.29800
_cell_length_c    3.89900
_cell_angle_alpha 90.00000
_cell_angle_beta  90.00000
_cell_angle_gamma 120.00000
 
loop_
_space_group_symop_id
_space_group_symop_operation_xyz
1 x,y,z
2 x-y,x,z
3 -y,x-y,z
4 -x,-y,z
5 -x+y,-x,z
6 y,-x+y,z
7 x-y,-y,-z
8 x,x-y,-z
9 y,x,-z
10 -x+y,y,-z
11 -x,-x+y,-z
12 -y,-x,-z
13 -x,-y,-z
14 -x+y,-x,-z
15 y,-x+y,-z
16 x,y,-z
17 x-y,x,-z
18 -y,x-y,-z
19 -x+y,y,z
20 -x,-x+y,z
21 -y,-x,z
22 x-y,-y,z
23 x,x-y,z
24 y,x,z
 
loop_
_atom_site_label
_atom_site_type_symbol
_atom_site_symmetry_multiplicity
_atom_site_Wyckoff_label
_atom_site_fract_x
_atom_site_fract_y
_atom_site_fract_z
_atom_site_occupancy
W1 W 3 f 0.50000 0.00000 0.00000 1.00000
O1 O 3 g 0.50000 0.00000 0.50000 1.00000
O2 O 6 l 0.21200 0.42400 0.00000 1.00000