# CIF file 
data_findsym-output
_audit_creation_method FINDSYM

_chemical_name_mineral 'Crancrinite'
_chemical_formula_sum 'Al3 C Ca Na3 O15 Si3'

loop_
_publ_author_name
 'S. K\^{o}zu'
 'K. Takan\\'{e}'
_journal_name_full_name
;
 Proceedings of the Imperial Academy (Japan)
;
_journal_volume 9
_journal_year 1933
_journal_page_first 56
_journal_page_last 59
_publ_Section_title
;
 Crystal Structure of Cancrinite from D\^{o}d\^{o
;

# Found in Strukturbericht Band III 1933-1935, 1937

_aflow_title 'Crancrinite (Na$_{6}$Ca$_{2}$Al$_{6}$Si$_{6}$O$_{24}$(CO$_{3}$)$_{2}$, $S3_{3}$ (I)) Structure'
_aflow_proto 'A3BCD3E15F3_hP52_173_c_b_b_c_5c_c'
_aflow_params 'a,c/a,z_{1},z_{2},x_{3},y_{3},z_{3},x_{4},y_{4},z_{4},x_{5},y_{5},z_{5},x_{6},y_{6},z_{6},x_{7},y_{7},z_{7},x_{8},y_{8},z_{8},x_{9},y_{9},z_{9},x_{10},y_{10},z_{10}'
_aflow_params_values '12.72,0.407232704403,0.36,0.86,0.26,0.23,0.24,0.5,0.5,0.22,0.05,0.36,0.01,0.36,0.32,-0.03,0.17,0.27,0.26,0.87,0.16,0.24,0.2,0.64,0.36,0.033,0.26,0.26'
_aflow_Strukturbericht '$S3_{3}$ (I)'
_aflow_Pearson 'hP52'

_symmetry_space_group_name_H-M "P 63"
_symmetry_Int_Tables_number 173
 
_cell_length_a    12.72000
_cell_length_b    12.72000
_cell_length_c    5.18000
_cell_angle_alpha 90.00000
_cell_angle_beta  90.00000
_cell_angle_gamma 120.00000
 
loop_
_space_group_symop_id
_space_group_symop_operation_xyz
1 x,y,z
2 x-y,x,z+1/2
3 -y,x-y,z
4 -x,-y,z+1/2
5 -x+y,-x,z
6 y,-x+y,z+1/2
 
loop_
_atom_site_label
_atom_site_type_symbol
_atom_site_symmetry_multiplicity
_atom_site_Wyckoff_label
_atom_site_fract_x
_atom_site_fract_y
_atom_site_fract_z
_atom_site_occupancy
C1 C 2 b 0.33333 0.66667 0.36000 1.00000
Ca1 Ca 2 b 0.33333 0.66667 0.86000 1.00000
Al1 Al 6 c 0.26000 0.23000 0.24000 1.00000
Na1 Na 6 c 0.50000 0.50000 0.22000 1.00000
O1 O 6 c 0.05000 0.36000 0.01000 1.00000
O2 O 6 c 0.36000 0.32000 -0.03000 1.00000
O3 O 6 c 0.17000 0.27000 0.26000 1.00000
O4 O 6 c 0.87000 0.16000 0.24000 1.00000
O5 O 6 c 0.20000 0.64000 0.36000 1.00000
Si1 Si 6 c 0.03300 0.26000 0.26000 1.00000