# CIF file 
data_findsym-output
_audit_creation_method FINDSYM

_chemical_name_mineral 'Sanguite'
_chemical_formula_sum 'Cl3 Cu K'

loop_
_publ_author_name
 'R. D. Willett'
 'C. {Dwiggins, Jr.}'
 'R. F. Kruh'
 'R. E. Rundle'
_journal_name_full_name
;
 Journal of Chemical Physics
;
_journal_volume 38
_journal_year 1963
_journal_page_first 2429
_journal_page_last 2436
_publ_Section_title
;
 Crystal Structures of KCuCl$_{3}$ and NH$_{4}$CuCl$_{3}$
;

_aflow_title 'Sanguite (KCuCl$_{3}$) Structure'
_aflow_proto 'A3BC_mP20_14_3e_e_e'
_aflow_params 'a,b/a,c/a,\beta,x_{1},y_{1},z_{1},x_{2},y_{2},z_{2},x_{3},y_{3},z_{3},x_{4},y_{4},z_{4},x_{5},y_{5},z_{5}'
_aflow_params_values '4.029,3.42144452718,2.16827997022,97.33333,0.2754,0.19875,0.263,0.6782,-0.00745,0.32171,0.8203,0.09875,-0.03369,0.2408,0.04976,0.1575,0.7825,0.17081,0.55692'
_aflow_Strukturbericht 'None'
_aflow_Pearson 'mP20'

_symmetry_space_group_name_H-M "P 1 21/c 1"
_symmetry_Int_Tables_number 14
 
_cell_length_a    4.02900
_cell_length_b    13.78500
_cell_length_c    8.73600
_cell_angle_alpha 90.00000
_cell_angle_beta  97.33333
_cell_angle_gamma 90.00000
 
loop_
_space_group_symop_id
_space_group_symop_operation_xyz
1 x,y,z
2 -x,y+1/2,-z+1/2
3 -x,-y,-z
4 x,-y+1/2,z+1/2
 
loop_
_atom_site_label
_atom_site_type_symbol
_atom_site_symmetry_multiplicity
_atom_site_Wyckoff_label
_atom_site_fract_x
_atom_site_fract_y
_atom_site_fract_z
_atom_site_occupancy
Cl1 Cl 4 e 0.27540 0.19875 0.26300 1.00000
Cl2 Cl 4 e 0.67820 -0.00745 0.32171 1.00000
Cl3 Cl 4 e 0.82030 0.09875 -0.03369 1.00000
Cu1 Cu 4 e 0.24080 0.04976 0.15750 1.00000
K1 K 4 e 0.78250 0.17081 0.55692 1.00000