# CIF file 
data_findsym-output
_audit_creation_method FINDSYM

_chemical_name_mineral 'Sodalite'
_chemical_formula_sum 'Al3 Cl Na4 O12 Si3'

loop_
_publ_author_name
 'I. Hassan'
 'H. D. Grundy'
_journal_name_full_name
;
 Acta Crystallographica Section B: Structural Science
;
_journal_volume 40
_journal_year 1984
_journal_page_first 6
_journal_page_last 13
_publ_Section_title
;
 The Crystal Structures of Sodalite-Group Minerals
;

_aflow_title 'Sodalite [Na$_{4}$(AlSiO$_{4}$)$_{3}$Cl, $S6_{2}$] Structure'
_aflow_proto 'A3BC4D12E3_cP46_218_d_a_e_i_c'
_aflow_params 'a,x_{4},x_{5},y_{5},z_{5}'
_aflow_params_values '8.882,0.1778,0.139,0.1494,0.4383'
_aflow_Strukturbericht '$S6_{2}$'
_aflow_Pearson 'cP46'

_symmetry_space_group_name_H-M "P -4 3 n"
_symmetry_Int_Tables_number 218
 
_cell_length_a    8.88200
_cell_length_b    8.88200
_cell_length_c    8.88200
_cell_angle_alpha 90.00000
_cell_angle_beta  90.00000
_cell_angle_gamma 90.00000
 
loop_
_space_group_symop_id
_space_group_symop_operation_xyz
1 x,y,z
2 x,-y,-z
3 -x,y,-z
4 -x,-y,z
5 y,z,x
6 y,-z,-x
7 -y,z,-x
8 -y,-z,x
9 z,x,y
10 z,-x,-y
11 -z,x,-y
12 -z,-x,y
13 y+1/2,x+1/2,z+1/2
14 y+1/2,-x+1/2,-z+1/2
15 -y+1/2,x+1/2,-z+1/2
16 -y+1/2,-x+1/2,z+1/2
17 x+1/2,z+1/2,y+1/2
18 x+1/2,-z+1/2,-y+1/2
19 -x+1/2,z+1/2,-y+1/2
20 -x+1/2,-z+1/2,y+1/2
21 z+1/2,y+1/2,x+1/2
22 z+1/2,-y+1/2,-x+1/2
23 -z+1/2,y+1/2,-x+1/2
24 -z+1/2,-y+1/2,x+1/2
 
loop_
_atom_site_label
_atom_site_type_symbol
_atom_site_symmetry_multiplicity
_atom_site_Wyckoff_label
_atom_site_fract_x
_atom_site_fract_y
_atom_site_fract_z
_atom_site_occupancy
Cl1 Cl 2 a 0.00000 0.00000 0.00000 1.00000
Si1 Si 6 c 0.25000 0.50000 0.00000 1.00000
Al1 Al 6 d 0.25000 0.00000 0.50000 1.00000
Na1 Na 8 e 0.17780 0.17780 0.17780 1.00000
O1 O 24 i 0.13900 0.14940 0.43830 1.00000