# CIF file 
data_findsym-output
_audit_creation_method FINDSYM

_chemical_name_mineral 'Vesuvianite'
_chemical_formula_sum 'Ag4 Ca10 Mg2 O34 (OH)4 Si9'

loop_
_publ_author_name
 'B. E. Warren'
 'D. I. Modell'
_journal_name_full_name
;
 Zeitschrift f{\"u}r Kristallographie - Crystalline Materials
;
_journal_volume 78
_journal_year 1931
_journal_page_first 422
_journal_page_last 432
_publ_Section_title
;
 The Structure of Vesuvianite Ca$_{10}$Al$_{4}$(Mg,Fe)$_{2}$Si$_{9}$O$_{34}$(OH)$_{4}$
;

# Found in Strukturbericht Band II 1928-1932, 1937

_aflow_title 'Vesuvianite (Ca$_{10}$Al$_{4}$(Mg,Fe)$_{2}$Si$_{9}$O$_{34}$(OH)$_{4}$, $S2_{3}$) Structure'
_aflow_proto 'A4B10C2D34E4F9_tP252_126_k_ce2k_f_h8k_k_d2k'
_aflow_params 'a,c/a,z_{3},x_{5},x_{6},y_{6},z_{6},x_{7},y_{7},z_{7},x_{8},y_{8},z_{8},x_{9},y_{9},z_{9},x_{10},y_{10},z_{10},x_{11},y_{11},z_{11},x_{12},y_{12},z_{12},x_{13},y_{13},z_{13},x_{14},y_{14},z_{14},x_{15},y_{15},z_{15},x_{16},y_{16},z_{16},x_{17},y_{17},z_{17},x_{18},y_{18},z_{18},x_{19},y_{19},z_{19}'
_aflow_params_values '15.63,0.756877799104,0.13,0.055,0.11,0.89,0.87,0.81,0.05,0.86,0.17,0.09,0.88,0.83,0.22,0.08,0.87,0.16,0.78,0.22,-0.06,-0.08,-0.07,0.13,-0.02,0.01,0.83,0.82,0.78,0.87,-0.07,-0.05,0.82,0.18,-0.08,-0.1,-0.07,0.06,-0.01,0.83,-0.05,0.19,0.87,-0.09,0.83,0.87'
_aflow_Strukturbericht '$S2_{3}$'
_aflow_Pearson 'tP252'

_symmetry_space_group_name_H-M "P 4/n 2/n 2/c (origin choice 2)"
_symmetry_Int_Tables_number 126
 
_cell_length_a    15.63000
_cell_length_b    15.63000
_cell_length_c    11.83000
_cell_angle_alpha 90.00000
_cell_angle_beta  90.00000
_cell_angle_gamma 90.00000
 
loop_
_space_group_symop_id
_space_group_symop_operation_xyz
1 x,y,z
2 x,-y+1/2,-z+1/2
3 -x+1/2,y,-z+1/2
4 -x+1/2,-y+1/2,z
5 -y+1/2,-x+1/2,-z+1/2
6 -y+1/2,x,z
7 y,-x+1/2,z
8 y,x,-z+1/2
9 -x,-y,-z
10 -x,y+1/2,z+1/2
11 x+1/2,-y,z+1/2
12 x+1/2,y+1/2,-z
13 y+1/2,x+1/2,z+1/2
14 y+1/2,-x,-z
15 -y,x+1/2,-z
16 -y,-x,z+1/2
 
loop_
_atom_site_label
_atom_site_type_symbol
_atom_site_symmetry_multiplicity
_atom_site_Wyckoff_label
_atom_site_fract_x
_atom_site_fract_y
_atom_site_fract_z
_atom_site_occupancy
Ca1 Ca 4 c 0.25000 0.75000 0.75000 1.00000
Si1 Si 4 d 0.25000 0.75000 0.00000 1.00000
Ca2 Ca 4 e 0.25000 0.25000 0.13000 1.00000
Mg1 Mg 8 f 0.00000 0.00000 0.00000 1.00000
O1 O 8 h 0.05500 0.05500 0.25000 1.00000
Ag1 Ag 16 k 0.11000 0.89000 0.87000 1.00000
Ca3 Ca 16 k 0.81000 0.05000 0.86000 1.00000
Ca4 Ca 16 k 0.17000 0.09000 0.88000 1.00000
O2 O 16 k 0.83000 0.22000 0.08000 1.00000
O3 O 16 k 0.87000 0.16000 0.78000 1.00000
O4 O 16 k 0.22000 -0.06000 -0.08000 1.00000
O5 O 16 k -0.07000 0.13000 -0.02000 1.00000
O6 O 16 k 0.01000 0.83000 0.82000 1.00000
O7 O 16 k 0.78000 0.87000 -0.07000 1.00000
O8 O 16 k -0.05000 0.82000 0.18000 1.00000
O9 O 16 k -0.08000 -0.10000 -0.07000 1.00000
OH1 OH 16 k 0.06000 -0.01000 0.83000 1.00000
Si2 Si 16 k -0.05000 0.19000 0.87000 1.00000
Si3 Si 16 k -0.09000 0.83000 0.87000 1.00000