# CIF file 
data_findsym-output
_audit_creation_method FINDSYM

_chemical_name_mineral 'Gwihabaite'
_chemical_formula_sum 'H4 N2 O3'

loop_
_publ_author_name
 'J. L. Amor\\'{o}s'
 'F. Arrese'
 'M. Canut'
_journal_name_full_name
;
 Zeitschrift f{\"u}r Kristallographie - Crystalline Materials
;
_journal_volume 117
_journal_year 1962
_journal_page_first 92
_journal_page_last 107
_publ_Section_title
;
 The crystal structure of the low-temperature phase of NH$_{4}$NO$_{3}$ (V) at -- 150$^{\circ}$C
;

# Found in The American Mineralogist Crystal Structure Database, 2003

_aflow_title 'Gwihabaite [NH$_{4}$NO$_{3}$ (V)] Structure'
_aflow_proto 'A4B2C3_tP72_77_8d_ab2c2d_6d'
_aflow_params 'a,c/a,z_{1},z_{2},z_{3},z_{4},x_{5},y_{5},z_{5},x_{6},y_{6},z_{6},x_{7},y_{7},z_{7},x_{8},y_{8},z_{8},x_{9},y_{9},z_{9},x_{10},y_{10},z_{10},x_{11},y_{11},z_{11},x_{12},y_{12},z_{12},x_{13},y_{13},z_{13},x_{14},y_{14},z_{14},x_{15},y_{15},z_{15},x_{16},y_{16},z_{16},x_{17},y_{17},z_{17},x_{18},y_{18},z_{18},x_{19},y_{19},z_{19},x_{20},y_{20},z_{20}'
_aflow_params_values '7.98,1.22556390977,0.25,0.25,0.75,0.25,0.076,0.076,0.19,0.076,-0.076,0.31,0.576,0.076,0.19,0.424,0.076,0.31,0.424,0.424,0.31,0.424,0.576,0.19,-0.076,0.424,0.31,-0.076,0.576,0.19,0.25,0.25,0.518,0.25,0.25,0.018,0.12,0.27,0.456,0.33,0.23,0.456,0.25,0.25,0.642,0.12,0.23,-0.044,0.38,0.27,-0.044,0.25,0.25,0.142'
_aflow_Strukturbericht 'None'
_aflow_Pearson 'tP72'

_symmetry_space_group_name_H-M "P 42"
_symmetry_Int_Tables_number 77
 
_cell_length_a    7.98000
_cell_length_b    7.98000
_cell_length_c    9.78000
_cell_angle_alpha 90.00000
_cell_angle_beta  90.00000
_cell_angle_gamma 90.00000
 
loop_
_space_group_symop_id
_space_group_symop_operation_xyz
1 x,y,z
2 -x,-y,z
3 -y,x,z+1/2
4 y,-x,z+1/2
 
loop_
_atom_site_label
_atom_site_type_symbol
_atom_site_symmetry_multiplicity
_atom_site_Wyckoff_label
_atom_site_fract_x
_atom_site_fract_y
_atom_site_fract_z
_atom_site_occupancy
N1 N 2 a 0.00000 0.00000 0.25000 1.00000
N2 N 2 b 0.50000 0.50000 0.25000 1.00000
N3 N 2 c 0.00000 0.50000 0.75000 1.00000
N4 N 2 c 0.00000 0.50000 0.25000 1.00000
H1 H 4 d 0.07600 0.07600 0.19000 1.00000
H2 H 4 d 0.07600 -0.07600 0.31000 1.00000
H3 H 4 d 0.57600 0.07600 0.19000 1.00000
H4 H 4 d 0.42400 0.07600 0.31000 1.00000
H5 H 4 d 0.42400 0.42400 0.31000 1.00000
H6 H 4 d 0.42400 0.57600 0.19000 1.00000
H7 H 4 d -0.07600 0.42400 0.31000 1.00000
H8 H 4 d -0.07600 0.57600 0.19000 1.00000
N5 N 4 d 0.25000 0.25000 0.51800 1.00000
N6 N 4 d 0.25000 0.25000 0.01800 1.00000
O1 O 4 d 0.12000 0.27000 0.45600 1.00000
O2 O 4 d 0.33000 0.23000 0.45600 1.00000
O3 O 4 d 0.25000 0.25000 0.64200 1.00000
O4 O 4 d 0.12000 0.23000 -0.04400 1.00000
O5 O 4 d 0.38000 0.27000 -0.04400 1.00000
O6 O 4 d 0.25000 0.25000 0.14200 1.00000