# CIF file 
data_findsym-output
_audit_creation_method FINDSYM

_chemical_name_mineral 'Fe4Si2Zr'
_chemical_formula_sum 'Fe4 Si2 Zr'

loop_
_publ_author_name
 'Y. P. Yarmolyuk'
 'L. A. Lysenko'
 'E. I. Gladyshevsky'
_journal_name_full_name
;
 Dopov. Akad. Nauk Ukr. RSR, Ser. A
;
_journal_volume 37
_journal_year 1975
_journal_page_first 281
_journal_page_last 284
_publ_Section_title
;
 Crystal Structure of ZrFe$_{4}$Si$_{2}$ -- A New Structure Type of Ternary Silicides
;

# Found in Simultaneous structural and magnetic transitions in YFe$_{4}$Ge$_{2}$ studied by neutron diffraction and magnetic measurements, 2001

_aflow_title 'ZrFe$_{4}$Si$_{2}$ Structure'
_aflow_proto 'A4B2C_tP14_136_i_g_b'
_aflow_params 'a,c/a,x_{2},x_{3},y_{3}'
_aflow_params_values '7.004,0.536122215877,0.2201,0.092,0.3468'
_aflow_Strukturbericht 'None'
_aflow_Pearson 'tP14'

_symmetry_space_group_name_H-M "P 42/m 21/n 2/m"
_symmetry_Int_Tables_number 136
 
_cell_length_a    7.00400
_cell_length_b    7.00400
_cell_length_c    3.75500
_cell_angle_alpha 90.00000
_cell_angle_beta  90.00000
_cell_angle_gamma 90.00000
 
loop_
_space_group_symop_id
_space_group_symop_operation_xyz
1 x,y,z
2 x+1/2,-y+1/2,-z+1/2
3 -x+1/2,y+1/2,-z+1/2
4 -x,-y,z
5 -y,-x,-z
6 -y+1/2,x+1/2,z+1/2
7 y+1/2,-x+1/2,z+1/2
8 y,x,-z
9 -x,-y,-z
10 -x+1/2,y+1/2,z+1/2
11 x+1/2,-y+1/2,z+1/2
12 x,y,-z
13 y,x,z
14 y+1/2,-x+1/2,-z+1/2
15 -y+1/2,x+1/2,-z+1/2
16 -y,-x,z
 
loop_
_atom_site_label
_atom_site_type_symbol
_atom_site_symmetry_multiplicity
_atom_site_Wyckoff_label
_atom_site_fract_x
_atom_site_fract_y
_atom_site_fract_z
_atom_site_occupancy
Zr1 Zr 2 b 0.00000 0.00000 0.50000 1.00000
Si1 Si 4 g 0.22010 0.77990 0.00000 1.00000
Fe1 Fe 8 i 0.09200 0.34680 0.00000 1.00000