# CIF file 
data_findsym-output
_audit_creation_method FINDSYM

_chemical_name_mineral 'Ga4Ti5'
_chemical_formula_sum 'Ga4 Ti5'

loop_
_publ_author_name
 'K. Schubert'
 'H. G. Meissner'
 'M. P\"{o}tzschke'
 'W. Rossteutscher'
 'E. Stolz'
_journal_name_full_name
;
 Naturwissenschaften
;
_journal_volume 49
_journal_year 1962
_journal_page_first 57
_journal_page_last 57
_publ_Section_title
;
 Einige Strukturdaten metallischer Phasen (7)
;

# Found in Ti$_{5}$Ga$_{4}$ Crystal Structure, {PAULING FILE in: Inorganic Solid Phases, SpringerMaterials (online database), Springer, Heidelberg (ed.) SpringerMaterials }, 2016

_aflow_title 'Ti$_{5}$Ga$_{4}$ Structure'
_aflow_proto 'A4B5_hP18_193_bg_dg'
_aflow_params 'a,c/a,x_{3},x_{4}'
_aflow_params_values '7.861,0.693550438875,0.62,0.29'
_aflow_Strukturbericht 'None'
_aflow_Pearson 'hP18'

_symmetry_space_group_name_H-M "P 63/m 2/c 2/m"
_symmetry_Int_Tables_number 193
 
_cell_length_a    7.86100
_cell_length_b    7.86100
_cell_length_c    5.45200
_cell_angle_alpha 90.00000
_cell_angle_beta  90.00000
_cell_angle_gamma 120.00000
 
loop_
_space_group_symop_id
_space_group_symop_operation_xyz
1 x,y,z
2 x-y,x,z+1/2
3 -y,x-y,z
4 -x,-y,z+1/2
5 -x+y,-x,z
6 y,-x+y,z+1/2
7 x-y,-y,-z+1/2
8 x,x-y,-z
9 y,x,-z+1/2
10 -x+y,y,-z
11 -x,-x+y,-z+1/2
12 -y,-x,-z
13 -x,-y,-z
14 -x+y,-x,-z+1/2
15 y,-x+y,-z
16 x,y,-z+1/2
17 x-y,x,-z
18 -y,x-y,-z+1/2
19 -x+y,y,z+1/2
20 -x,-x+y,z
21 -y,-x,z+1/2
22 x-y,-y,z
23 x,x-y,z+1/2
24 y,x,z
 
loop_
_atom_site_label
_atom_site_type_symbol
_atom_site_symmetry_multiplicity
_atom_site_Wyckoff_label
_atom_site_fract_x
_atom_site_fract_y
_atom_site_fract_z
_atom_site_occupancy
Ga1 Ga 2 b 0.00000 0.00000 0.00000 1.00000
Ti1 Ti 4 d 0.33333 0.66667 0.00000 1.00000
Ga2 Ga 6 g 0.62000 0.00000 0.25000 1.00000
Ti2 Ti 6 g 0.29000 0.00000 0.25000 1.00000
