# CIF file 
data_findsym-output
_audit_creation_method FINDSYM

_chemical_name_mineral 'Bertrandite'
_chemical_formula_sum 'Be4 O7 (OH)2 Si2'

loop_
_publ_author_name
 'R. M. Hazen'
 'A. Y. Au'
_journal_name_full_name
;
 Physics and Chemistry of Minerals
;
_journal_volume 13
_journal_year 1986
_journal_page_first 69
_journal_page_last 78
_publ_Section_title
;
 High-pressure crystal chemistry of phenakite (Be$_{2}$SiO$_{4}$) and bertrandite (Be$_{4}$Si$_{2}$O$_{7}$(OH)$_{2}$)
;

# Found in The power of databases: the RRUFF project, 2015

_aflow_title 'Bertrandite (Be$_{4}$Si$_{2}$O$_{7}$(OH)$_{2}$, $S4_{6}$) Structure'
_aflow_proto 'A4B7C2D2_oC60_36_2b_a3b_2a_b'
_aflow_params 'a,b/a,c/a,y_{1},z_{1},y_{2},z_{2},y_{3},z_{3},x_{4},y_{4},z_{4},x_{5},y_{5},z_{5},x_{6},y_{6},z_{6},x_{7},y_{7},z_{7},x_{8},y_{8},z_{8},x_{9},y_{9},z_{9}'
_aflow_params_values '8.7135,1.75222356114,0.524278418546,0.5852,0.5951,0.7553,0.0886,0.0872,0.0993,0.1735,0.0527,0.1628,0.3264,0.2203,0.1517,0.2897,0.1244,0.0,0.2101,0.0431,0.5074,0.2934,0.2093,0.5024,0.3254,0.1144,0.6523'
_aflow_Strukturbericht '$S4_{6}$'
_aflow_Pearson 'oC60'

_symmetry_space_group_name_H-M "C m c 21"
_symmetry_Int_Tables_number 36
 
_cell_length_a    8.71350
_cell_length_b    15.26800
_cell_length_c    4.56830
_cell_angle_alpha 90.00000
_cell_angle_beta  90.00000
_cell_angle_gamma 90.00000
 
loop_
_space_group_symop_id
_space_group_symop_operation_xyz
1 x,y,z
2 -x,-y,z+1/2
3 -x,y,z
4 x,-y,z+1/2
5 x+1/2,y+1/2,z
6 -x+1/2,-y+1/2,z+1/2
7 -x+1/2,y+1/2,z
8 x+1/2,-y+1/2,z+1/2
 
loop_
_atom_site_label
_atom_site_type_symbol
_atom_site_symmetry_multiplicity
_atom_site_Wyckoff_label
_atom_site_fract_x
_atom_site_fract_y
_atom_site_fract_z
_atom_site_occupancy
O1 O 4 a 0.00000 0.58520 0.59510 1.00000
OH1 OH 4 a 0.00000 0.75530 0.08860 1.00000
OH2 OH 4 a 0.00000 0.08720 0.09930 1.00000
Be1 Be 8 b 0.17350 0.05270 0.16280 1.00000
Be2 Be 8 b 0.32640 0.22030 0.15170 1.00000
O2 O 8 b 0.28970 0.12440 0.00000 1.00000
O3 O 8 b 0.21010 0.04310 0.50740 1.00000
O4 O 8 b 0.29340 0.20930 0.50240 1.00000
Si1 Si 8 b 0.32540 0.11440 0.65230 1.00000