# CIF file 
data_findsym-output
_audit_creation_method FINDSYM

_chemical_name_mineral 'I4Sn'
_chemical_formula_sum 'I4 Sn'

loop_
_publ_author_name
 'F. Meller'
 'I. Fankuchen'
_journal_name_full_name
;
 Acta Cristallographica
;
_journal_volume 8
_journal_year 1955
_journal_page_first 343
_journal_page_last 344
_publ_Section_title
;
 The crystal structure of tin tetraiodide
;

# Found in The pressure-induced metallic amorphous state of SnI$_{4}$. I. A novel crystal-to-amorphous transition studied by X-ray scattering, 1985

_aflow_title 'SnI$_{4}$ ($D1_{1}$) Structure'
_aflow_proto 'A4B_cP40_205_cd_c'
_aflow_params 'a,x_{1},x_{2},x_{3},y_{3},z_{3}'
_aflow_params_values '12.26,0.252,0.125,-0.002,-0.002,0.252'
_aflow_Strukturbericht '$D1_{1}$'
_aflow_Pearson 'cP40'

_symmetry_space_group_name_H-M "P 21/a -3"
_symmetry_Int_Tables_number 205
 
_cell_length_a    12.26000
_cell_length_b    12.26000
_cell_length_c    12.26000
_cell_angle_alpha 90.00000
_cell_angle_beta  90.00000
_cell_angle_gamma 90.00000
 
loop_
_space_group_symop_id
_space_group_symop_operation_xyz
1 x,y,z
2 x+1/2,-y+1/2,-z
3 -x,y+1/2,-z+1/2
4 -x+1/2,-y,z+1/2
5 y,z,x
6 y+1/2,-z+1/2,-x
7 -y,z+1/2,-x+1/2
8 -y+1/2,-z,x+1/2
9 z,x,y
10 z+1/2,-x+1/2,-y
11 -z,x+1/2,-y+1/2
12 -z+1/2,-x,y+1/2
13 -x,-y,-z
14 -x+1/2,y+1/2,z
15 x,-y+1/2,z+1/2
16 x+1/2,y,-z+1/2
17 -y,-z,-x
18 -y+1/2,z+1/2,x
19 y,-z+1/2,x+1/2
20 y+1/2,z,-x+1/2
21 -z,-x,-y
22 -z+1/2,x+1/2,y
23 z,-x+1/2,y+1/2
24 z+1/2,x,-y+1/2
 
loop_
_atom_site_label
_atom_site_type_symbol
_atom_site_symmetry_multiplicity
_atom_site_Wyckoff_label
_atom_site_fract_x
_atom_site_fract_y
_atom_site_fract_z
_atom_site_occupancy
I1 I 8 c 0.25200 0.25200 0.25200 1.00000
Sn1 Sn 8 c 0.12500 0.12500 0.12500 1.00000
I2 I 24 d -0.00200 -0.00200 0.25200 1.00000
