# CIF file 
data_findsym-output
_audit_creation_method FINDSYM

_chemical_name_mineral 'Cl4(H2O)K2Sn'
_chemical_formula_sum 'Cl4 (H2O) K2 Sn'

loop_
_publ_author_name
 'H. Brasseur'
 'A. {de Rassenfosse}'
_journal_name_full_name
;
 Zeitschrift f{\"u}r Kristallographie - Crystalline Materials
;
_journal_volume 101
_journal_year 1939
_journal_page_first 389
_journal_page_last 395
_publ_Section_title
;
 The Crystal Structure of Hydrated Potassium Chlorostannite
;

# Found in Strukturbericht Band VII 1939, 1943

_aflow_title 'K$_{2}$SnCl$_{4}\cdot$H$_{2}$O ($E3_{5}$) Structure'
_aflow_proto 'A4BC2D_oP32_62_2cd_b_2c_a'
_aflow_params 'a,b/a,c/a,x_{3},z_{3},x_{4},z_{4},x_{5},z_{5},x_{6},z_{6},x_{7},y_{7},z_{7}'
_aflow_params_values '12.05,0.755186721992,0.684647302905,-0.05,0.21,0.05,0.79,0.2,0.34,0.825,0.6,0.25,-0.04,0.12'
_aflow_Strukturbericht '$E3_{5}$'
_aflow_Pearson 'oP32'

_symmetry_space_group_name_H-M "P 21/n 21/m 21/a"
_symmetry_Int_Tables_number 62
 
_cell_length_a    12.05000
_cell_length_b    9.10000
_cell_length_c    8.25000
_cell_angle_alpha 90.00000
_cell_angle_beta  90.00000
_cell_angle_gamma 90.00000
 
loop_
_space_group_symop_id
_space_group_symop_operation_xyz
1 x,y,z
2 x+1/2,-y+1/2,-z+1/2
3 -x,y+1/2,-z
4 -x+1/2,-y,z+1/2
5 -x,-y,-z
6 -x+1/2,y+1/2,z+1/2
7 x,-y+1/2,z
8 x+1/2,y,-z+1/2
 
loop_
_atom_site_label
_atom_site_type_symbol
_atom_site_symmetry_multiplicity
_atom_site_Wyckoff_label
_atom_site_fract_x
_atom_site_fract_y
_atom_site_fract_z
_atom_site_occupancy
Sn1 Sn 4 a 0.00000 0.00000 0.00000 1.00000
H2O1 H2O 4 b 0.00000 0.00000 0.50000 1.00000
Cl1 Cl 4 c -0.05000 0.25000 0.21000 1.00000
Cl2 Cl 4 c 0.05000 0.25000 0.79000 1.00000
K1 K 4 c 0.20000 0.25000 0.34000 1.00000
K2 K 4 c 0.82500 0.25000 0.60000 1.00000
Cl3 Cl 8 d 0.25000 -0.04000 0.12000 1.00000