# CIF file 
data_findsym-output
_audit_creation_method FINDSYM

_chemical_name_mineral 'Cl4(H2O)K2Sn'
_chemical_formula_sum 'Cl4 (H2O) K2 Sn'

loop_
_publ_author_name
 'B. Kamenar'
 'D. Grdeni\\'{c}'
_journal_name_full_name
;
 Journal of Inorganic and Nuclear Chemistry
;
_journal_volume 24
_journal_year 1962
_journal_page_first 1039
_journal_page_last 1045
_publ_Section_title
;
 The crystal structure of potassium chloride trichlorostannite hydrate, KCl, KSnCl$_{3}$, H$_{2}$O
;

_aflow_title 'K$_{2}$SnCl$_{4}$$\cdot$H$_{2}$O Structure'
_aflow_proto 'A4BC2D_oP32_62_2cd_c_d_c'
_aflow_params 'a,b/a,c/a,x_{1},z_{1},x_{2},z_{2},x_{3},z_{3},x_{4},z_{4},x_{5},y_{5},z_{5},x_{6},y_{6},z_{6}'
_aflow_params_values '12.05,0.758506224066,0.683817427386,0.308,0.888,0.766,0.099,0.54,0.441,0.512,0.0,0.444,-0.052,0.207,0.685,0.482,0.37'
_aflow_Strukturbericht 'None'
_aflow_Pearson 'oP32'

_symmetry_space_group_name_H-M "P 21/n 21/m 21/a"
_symmetry_Int_Tables_number 62
 
_cell_length_a    12.05000
_cell_length_b    9.14000
_cell_length_c    8.24000
_cell_angle_alpha 90.00000
_cell_angle_beta  90.00000
_cell_angle_gamma 90.00000
 
loop_
_space_group_symop_id
_space_group_symop_operation_xyz
1 x,y,z
2 x+1/2,-y+1/2,-z+1/2
3 -x,y+1/2,-z
4 -x+1/2,-y,z+1/2
5 -x,-y,-z
6 -x+1/2,y+1/2,z+1/2
7 x,-y+1/2,z
8 x+1/2,y,-z+1/2
 
loop_
_atom_site_label
_atom_site_type_symbol
_atom_site_symmetry_multiplicity
_atom_site_Wyckoff_label
_atom_site_fract_x
_atom_site_fract_y
_atom_site_fract_z
_atom_site_occupancy
Cl1 Cl 4 c 0.30800 0.25000 0.88800 1.00000
Cl2 Cl 4 c 0.76600 0.25000 0.09900 1.00000
H2O1 H2O 4 c 0.54000 0.25000 0.44100 1.00000
Sn1 Sn 4 c 0.51200 0.25000 0.00000 1.00000
Cl3 Cl 8 d 0.44400 -0.05200 0.20700 1.00000
K1 K 8 d 0.68500 0.48200 0.37000 1.00000