# CIF file 
data_findsym-output
_audit_creation_method FINDSYM

_chemical_name_mineral 'Pd5Pu3'
_chemical_formula_sum 'Pd5 Pu3'

loop_
_publ_author_name
 'D. T. Cromer'
_journal_name_full_name
;
 Acta Crystallographica Section B: Structural Science
;
_journal_volume 32
_journal_year 1976
_journal_page_first 1930
_journal_page_last 1932
_publ_Section_title
;
 Plutonium-palladium Pu$_{3}$Pd$_{5}$
;

# Found in New $R$$_{3}$Pd$_{5}$ Compounds ($R$ = Sc, Y, Gd-Lu): Formation and Stability, Crystal Structure, and Antiferromagnetism, 2016

_aflow_title 'Pd$_{5}$Pu$_{3}$ Structure'
_aflow_proto 'A5B3_oC32_63_cfg_ce'
_aflow_params 'a,b/a,c/a,y_{1},y_{2},x_{3},y_{4},z_{4},x_{5},y_{5}'
_aflow_params_values '9.20101,0.781979369656,1.0619486339,0.0254,0.6251,0.2018,0.3147,0.451,0.2219,0.2863'
_aflow_Strukturbericht 'None'
_aflow_Pearson 'oC32'

_symmetry_space_group_name_H-M "C 2/m 2/c 21/m"
_symmetry_Int_Tables_number 63
 
_cell_length_a    9.20101
_cell_length_b    7.19500
_cell_length_c    9.77100
_cell_angle_alpha 90.00000
_cell_angle_beta  90.00000
_cell_angle_gamma 90.00000
 
loop_
_space_group_symop_id
_space_group_symop_operation_xyz
1 x,y,z
2 x,-y,-z
3 -x,y,-z+1/2
4 -x,-y,z+1/2
5 -x,-y,-z
6 -x,y,z
7 x,-y,z+1/2
8 x,y,-z+1/2
9 x+1/2,y+1/2,z
10 x+1/2,-y+1/2,-z
11 -x+1/2,y+1/2,-z+1/2
12 -x+1/2,-y+1/2,z+1/2
13 -x+1/2,-y+1/2,-z
14 -x+1/2,y+1/2,z
15 x+1/2,-y+1/2,z+1/2
16 x+1/2,y+1/2,-z+1/2
 
loop_
_atom_site_label
_atom_site_type_symbol
_atom_site_symmetry_multiplicity
_atom_site_Wyckoff_label
_atom_site_fract_x
_atom_site_fract_y
_atom_site_fract_z
_atom_site_occupancy
Pd1 Pd 4 c 0.00000 0.02540 0.25000 1.00000
Pu1 Pu 4 c 0.00000 0.62510 0.25000 1.00000
Pu2 Pu 8 e 0.20180 0.00000 0.00000 1.00000
Pd2 Pd 8 f 0.00000 0.31470 0.45100 1.00000
Pd3 Pd 8 g 0.22190 0.28630 0.25000 1.00000