# CIF file 
data_findsym-output
_audit_creation_method FINDSYM

_chemical_name_mineral 'O5SV'
_chemical_formula_sum 'O5 S V'

loop_
_publ_author_name
 'P. Kierkegaard'
 'J. M. Longo'
 'B.-O. Marinder'
_journal_name_full_name
;
 Acta Chemica Scandinavica
;
_journal_volume 19
_journal_year 1965
_journal_page_first 763
_journal_page_last 764
_publ_Section_title
;
 Note on the Crystal Structure of VOSO$_{4}$
;

_aflow_title 'VOSO$_{4}$ Structure'
_aflow_proto 'A5BC_oP28_62_3cd_c_c'
_aflow_params 'a,b/a,c/a,x_{1},z_{1},x_{2},z_{2},x_{3},z_{3},x_{4},z_{4},x_{5},z_{5},x_{6},y_{6},z_{6}'
_aflow_params_values '7.371,0.850495183829,0.960792294126,0.7187,-0.0104,0.0399,-0.0201,0.3719,0.1647,0.8761,0.8669,0.1658,0.2327,0.1251,0.5733,0.2569'
_aflow_Strukturbericht 'None'
_aflow_Pearson 'oP28'

_symmetry_space_group_name_H-M "P 21/n 21/m 21/a"
_symmetry_Int_Tables_number 62
 
_cell_length_a    7.37100
_cell_length_b    6.26900
_cell_length_c    7.08200
_cell_angle_alpha 90.00000
_cell_angle_beta  90.00000
_cell_angle_gamma 90.00000
 
loop_
_space_group_symop_id
_space_group_symop_operation_xyz
1 x,y,z
2 x+1/2,-y+1/2,-z+1/2
3 -x,y+1/2,-z
4 -x+1/2,-y,z+1/2
5 -x,-y,-z
6 -x+1/2,y+1/2,z+1/2
7 x,-y+1/2,z
8 x+1/2,y,-z+1/2
 
loop_
_atom_site_label
_atom_site_type_symbol
_atom_site_symmetry_multiplicity
_atom_site_Wyckoff_label
_atom_site_fract_x
_atom_site_fract_y
_atom_site_fract_z
_atom_site_occupancy
O1 O 4 c 0.71870 0.25000 -0.01040 1.00000
O2 O 4 c 0.03990 0.25000 -0.02010 1.00000
O3 O 4 c 0.37190 0.25000 0.16470 1.00000
S1 S 4 c 0.87610 0.25000 0.86690 1.00000
V1 V 4 c 0.16580 0.25000 0.23270 1.00000
O4 O 8 d 0.12510 0.57330 0.25690 1.00000