# CIF file 
data_findsym-output
_audit_creation_method FINDSYM

_chemical_name_mineral 'Ca6Na2O15Si4'
_chemical_formula_sum 'Ca6 Na2 O15 Si4'

loop_
_publ_author_name
 'V. Kahlenberg'
 'M. Maier'
_journal_name_full_name
;
 Mineralogy and Petrology
;
_journal_volume 110
_journal_year 2016
_journal_page_first 905
_journal_page_last 915
_publ_Section_title
;
 On the existence of a high-temperature polymorph of Na$_{2}$Ca$_{6}$Si$_{4}$O$_{15}$--implications for the phase equilibria in the system Na$_{2}$O-CaO-SiO$_{2}$
;

_aflow_title 'Na$_{2}$Ca$_{6}$Si$_{4}$O$_{15}$ Structure'
_aflow_proto 'A6B2C15D4_mP54_7_6a_2a_15a_4a'
_aflow_params 'a,b/a,c/a,\beta,x_{1},y_{1},z_{1},x_{2},y_{2},z_{2},x_{3},y_{3},z_{3},x_{4},y_{4},z_{4},x_{5},y_{5},z_{5},x_{6},y_{6},z_{6},x_{7},y_{7},z_{7},x_{8},y_{8},z_{8},x_{9},y_{9},z_{9},x_{10},y_{10},z_{10},x_{11},y_{11},z_{11},x_{12},y_{12},z_{12},x_{13},y_{13},z_{13},x_{14},y_{14},z_{14},x_{15},y_{15},z_{15},x_{16},y_{16},z_{16},x_{17},y_{17},z_{17},x_{18},y_{18},z_{18},x_{19},y_{19},z_{19},x_{20},y_{20},z_{20},x_{21},y_{21},z_{21},x_{22},y_{22},z_{22},x_{23},y_{23},z_{23},x_{24},y_{24},z_{24},x_{25},y_{25},z_{25},x_{26},y_{26},z_{26},x_{27},y_{27},z_{27}'
_aflow_params_values '9.0112,0.812000621449,1.21762917259,107.72,0.3409,0.2658,0.07662,0.6782,0.50471,0.1731,0.3148,0.0044,0.3329,-0.0022,0.2541,0.27358,-0.0033,0.7531,0.31251,0.6554,0.2291,-0.09514,0.3179,0.718,0.0741,0.6731,0.2144,0.4123,0.8207,0.4832,0.8963,0.2666,0.3166,0.3293,0.2631,0.6918,0.3234,0.0643,-0.0059,0.1862,0.7163,0.8148,0.1874,-0.0723,0.5119,0.1535,0.497,0.4776,-0.022,0.5282,-0.0241,0.5029,0.1732,0.0159,-0.0177,0.0011,0.7477,-0.0003,0.4988,0.0147,0.234,0.456,0.5016,0.2321,0.7307,0.1924,0.191,0.8718,0.0697,-0.0515,0.1138,0.4252,0.0116,0.3664,0.5049,0.3381,0.6271,-0.0087,0.6556,0.0263,-0.0323,0.0347,-0.0333,0.5304,0.0206'
_aflow_Strukturbericht 'None'
_aflow_Pearson 'mP54'

_symmetry_space_group_name_H-M "P 1 c 1"
_symmetry_Int_Tables_number 7
 
_cell_length_a    9.01120
_cell_length_b    7.31710
_cell_length_c    10.97230
_cell_angle_alpha 90.00000
_cell_angle_beta  107.72000
_cell_angle_gamma 90.00000
 
loop_
_space_group_symop_id
_space_group_symop_operation_xyz
1 x,y,z
2 x,-y,z+1/2
 
loop_
_atom_site_label
_atom_site_type_symbol
_atom_site_symmetry_multiplicity
_atom_site_Wyckoff_label
_atom_site_fract_x
_atom_site_fract_y
_atom_site_fract_z
_atom_site_occupancy
Ca1 Ca 2 a 0.34090 0.26580 0.07662 1.00000
Ca2 Ca 2 a 0.67820 0.50471 0.17310 1.00000
Ca3 Ca 2 a 0.31480 0.00440 0.33290 1.00000
Ca4 Ca 2 a -0.00220 0.25410 0.27358 1.00000
Ca5 Ca 2 a -0.00330 0.75310 0.31251 1.00000
Ca6 Ca 2 a 0.65540 0.22910 -0.09514 1.00000
Na1 Na 2 a 0.31790 0.71800 0.07410 1.00000
Na2 Na 2 a 0.67310 0.21440 0.41230 1.00000
O1 O 2 a 0.82070 0.48320 0.89630 1.00000
O2 O 2 a 0.26660 0.31660 0.32930 1.00000
O3 O 2 a 0.26310 0.69180 0.32340 1.00000
O4 O 2 a 0.06430 -0.00590 0.18620 1.00000
O5 O 2 a 0.71630 0.81480 0.18740 1.00000
O6 O 2 a -0.07230 0.51190 0.15350 1.00000
O7 O 2 a 0.49700 0.47760 -0.02200 1.00000
O8 O 2 a 0.52820 -0.02410 0.50290 1.00000
O9 O 2 a 0.17320 0.01590 -0.01770 1.00000
O10 O 2 a 0.00110 0.74770 -0.00030 1.00000
O11 O 2 a 0.49880 0.01470 0.23400 1.00000
O12 O 2 a 0.45600 0.50160 0.23210 1.00000
O13 O 2 a 0.73070 0.19240 0.19100 1.00000
O14 O 2 a 0.87180 0.06970 -0.05150 1.00000
O15 O 2 a 0.11380 0.42520 0.01160 1.00000
Si1 Si 2 a 0.36640 0.50490 0.33810 1.00000
Si2 Si 2 a 0.62710 -0.00870 0.65560 1.00000
Si3 Si 2 a 0.02630 -0.03230 0.03470 1.00000
Si4 Si 2 a -0.03330 0.53040 0.02060 1.00000