# CIF file 
data_findsym-output
_audit_creation_method FINDSYM

_chemical_name_mineral 'Cs6O36W11'
_chemical_formula_sum 'Cs6 O36 W11'

loop_
_publ_author_name
 'K. Okada'
 'F. Marumo'
 'S. Iwai'
_journal_name_full_name
;
 Acta Crystallographica Section B: Structural Science
;
_journal_volume 34
_journal_year 1978
_journal_page_first 50
_journal_page_last 54
_publ_Section_title
;
 The Crystal Structure of Cs$_{6}$W$_{11}$O$_{36}$
;

_aflow_title 'Cs$_{6}$W$_{11}$O$_{36}$ Structure'
_aflow_proto 'A6B36C11_mC212_9_6a_36a_11a'
_aflow_params 'a,b/a,c/a,\beta,x_{1},y_{1},z_{1},x_{2},y_{2},z_{2},x_{3},y_{3},z_{3},x_{4},y_{4},z_{4},x_{5},y_{5},z_{5},x_{6},y_{6},z_{6},x_{7},y_{7},z_{7},x_{8},y_{8},z_{8},x_{9},y_{9},z_{9},x_{10},y_{10},z_{10},x_{11},y_{11},z_{11},x_{12},y_{12},z_{12},x_{13},y_{13},z_{13},x_{14},y_{14},z_{14},x_{15},y_{15},z_{15},x_{16},y_{16},z_{16},x_{17},y_{17},z_{17},x_{18},y_{18},z_{18},x_{19},y_{19},z_{19},x_{20},y_{20},z_{20},x_{21},y_{21},z_{21},x_{22},y_{22},z_{22},x_{23},y_{23},z_{23},x_{24},y_{24},z_{24},x_{25},y_{25},z_{25},x_{26},y_{26},z_{26},x_{27},y_{27},z_{27},x_{28},y_{28},z_{28},x_{29},y_{29},z_{29},x_{30},y_{30},z_{30},x_{31},y_{31},z_{31},x_{32},y_{32},z_{32},x_{33},y_{33},z_{33},x_{34},y_{34},z_{34},x_{35},y_{35},z_{35},x_{36},y_{36},z_{36},x_{37},y_{37},z_{37},x_{38},y_{38},z_{38},x_{39},y_{39},z_{39},x_{40},y_{40},z_{40},x_{41},y_{41},z_{41},x_{42},y_{42},z_{42},x_{43},y_{43},z_{43},x_{44},y_{44},z_{44},x_{45},y_{45},z_{45},x_{46},y_{46},z_{46},x_{47},y_{47},z_{47},x_{48},y_{48},z_{48},x_{49},y_{49},z_{49},x_{50},y_{50},z_{50},x_{51},y_{51},z_{51},x_{52},y_{52},z_{52},x_{53},y_{53},z_{53}'
_aflow_params_values '12.577,0.577323686094,3.00548620498,102.81,0.831,0.0001,0.7206,0.2029,0.0017,0.7786,0.2482,0.4974,0.0987,0.2817,0.0025,0.8992,0.4748,0.4942,-0.0638,0.058,0.0037,0.0625,0.528,0.01,-0.044,0.082,0.48,0.667,0.731,0.007,0.892,0.749,0.02,0.791,0.814,0.009,0.007,0.207,0.324,-0.048,0.701,0.203,-0.048,0.053,0.311,0.894,0.561,0.202,0.888,0.152,0.318,0.832,0.618,0.168,0.836,0.372,0.326,0.852,0.859,0.191,0.847,0.432,0.303,0.791,-0.047,0.202,0.784,0.64,0.2,0.012,0.127,0.314,0.006,0.414,0.164,-0.014,-0.093,0.313,-0.013,0.411,0.187,0.667,0.896,0.315,0.668,0.185,0.174,0.652,0.689,0.312,0.646,0.091,0.215,0.713,0.579,0.307,0.707,0.804,0.323,0.044,0.317,0.172,0.048,0.487,0.188,0.611,-0.013,0.33,0.607,0.219,0.004,-0.014,-0.057,0.478,0.832,0.537,0.467,0.846,0.797,0.497,0.712,0.292,0.016,0.609,0.495,0.498,0.649,0.502,0.013,0.05,0.25,0.2342,0.0,0.7808,0.2354,0.0,0.483,0.2476,0.8347,0.5381,0.2682,0.6654,0.0553,0.2539,0.6648,-0.0022,0.2447,0.8349,0.6325,0.0051,-0.0841,-0.0894,0.495,0.0835,0.7428,0.0229,0.8341,0.7913,0.4872,0.6644,0.5166,0.0298,0.0'
_aflow_Strukturbericht 'None'
_aflow_Pearson 'mC212'

_symmetry_space_group_name_H-M "C 1 c 1"
_symmetry_Int_Tables_number 9
 
_cell_length_a    12.57700
_cell_length_b    7.26100
_cell_length_c    37.80000
_cell_angle_alpha 90.00000
_cell_angle_beta  102.81000
_cell_angle_gamma 90.00000
 
loop_
_space_group_symop_id
_space_group_symop_operation_xyz
1 x,y,z
2 x,-y,z+1/2
3 x+1/2,y+1/2,z
4 x+1/2,-y+1/2,z+1/2
 
loop_
_atom_site_label
_atom_site_type_symbol
_atom_site_symmetry_multiplicity
_atom_site_Wyckoff_label
_atom_site_fract_x
_atom_site_fract_y
_atom_site_fract_z
_atom_site_occupancy
Cs1 Cs 4 a 0.83100 0.00010 0.72060 1.00000
Cs2 Cs 4 a 0.20290 0.00170 0.77860 1.00000
Cs3 Cs 4 a 0.24820 0.49740 0.09870 1.00000
Cs4 Cs 4 a 0.28170 0.00250 0.89920 1.00000
Cs5 Cs 4 a 0.47480 0.49420 -0.06380 1.00000
Cs6 Cs 4 a 0.05800 0.00370 0.06250 1.00000
O1 O 4 a 0.52800 0.01000 -0.04400 1.00000
O2 O 4 a 0.08200 0.48000 0.66700 1.00000
O3 O 4 a 0.73100 0.00700 0.89200 1.00000
O4 O 4 a 0.74900 0.02000 0.79100 1.00000
O5 O 4 a 0.81400 0.00900 0.00700 1.00000
O6 O 4 a 0.20700 0.32400 -0.04800 1.00000
O7 O 4 a 0.70100 0.20300 -0.04800 1.00000
O8 O 4 a 0.05300 0.31100 0.89400 1.00000
O9 O 4 a 0.56100 0.20200 0.88800 1.00000
O10 O 4 a 0.15200 0.31800 0.83200 1.00000
O11 O 4 a 0.61800 0.16800 0.83600 1.00000
O12 O 4 a 0.37200 0.32600 0.85200 1.00000
O13 O 4 a 0.85900 0.19100 0.84700 1.00000
O14 O 4 a 0.43200 0.30300 0.79100 1.00000
O15 O 4 a -0.04700 0.20200 0.78400 1.00000
O16 O 4 a 0.64000 0.20000 0.01200 1.00000
O17 O 4 a 0.12700 0.31400 0.00600 1.00000
O18 O 4 a 0.41400 0.16400 -0.01400 1.00000
O19 O 4 a -0.09300 0.31300 -0.01300 1.00000
O20 O 4 a 0.41100 0.18700 0.66700 1.00000
O21 O 4 a 0.89600 0.31500 0.66800 1.00000
O22 O 4 a 0.18500 0.17400 0.65200 1.00000
O23 O 4 a 0.68900 0.31200 0.64600 1.00000
O24 O 4 a 0.09100 0.21500 0.71300 1.00000
O25 O 4 a 0.57900 0.30700 0.70700 1.00000
O26 O 4 a 0.80400 0.32300 0.04400 1.00000
O27 O 4 a 0.31700 0.17200 0.04800 1.00000
O28 O 4 a 0.48700 0.18800 0.61100 1.00000
O29 O 4 a -0.01300 0.33000 0.60700 1.00000
O30 O 4 a 0.21900 0.00400 -0.01400 1.00000
O31 O 4 a -0.05700 0.47800 0.83200 1.00000
O32 O 4 a 0.53700 0.46700 0.84600 1.00000
O33 O 4 a 0.79700 0.49700 0.71200 1.00000
O34 O 4 a 0.29200 0.01600 0.60900 1.00000
O35 O 4 a 0.49500 0.49800 0.64900 1.00000
O36 O 4 a 0.50200 0.01300 0.05000 1.00000
W1 W 4 a 0.25000 0.23420 0.00000 1.00000
W2 W 4 a 0.78080 0.23540 0.00000 1.00000
W3 W 4 a 0.48300 0.24760 0.83470 1.00000
W4 W 4 a 0.53810 0.26820 0.66540 1.00000
W5 W 4 a 0.05530 0.25390 0.66480 1.00000
W6 W 4 a -0.00220 0.24470 0.83490 1.00000
W7 W 4 a 0.63250 0.00510 -0.08410 1.00000
W8 W 4 a -0.08940 0.49500 0.08350 1.00000
W9 W 4 a 0.74280 0.02290 0.83410 1.00000
W10 W 4 a 0.79130 0.48720 0.66440 1.00000
W11 W 4 a 0.51660 0.02980 0.00000 1.00000