# CIF file 
data_findsym-output
_audit_creation_method FINDSYM

_chemical_name_mineral '(H2O)8SrO2'
_chemical_formula_sum '(H2O)8 O2 Sr'

loop_
_publ_author_name
 'G. Natta'
_journal_name_full_name
;
 Gazzetta Chimica Italiana
;
_journal_volume 62
_journal_year 1932
_journal_page_first 444
_journal_page_last 444
_publ_Section_title
;
 ~
;

# Found in The space group of calcium peroxide octahydrate, 1951

_aflow_title '$E6_{2}$ [SrO$_{2}$(H$_{2}$O)$_{8}$] ({\em{possibly obsolete}}) Structure'
_aflow_proto 'A8B2C_tP11_123_r_h_a'
_aflow_params 'a,c/a,z_{2},x_{3},z_{3}'
_aflow_params_values '6.32,0.879746835443,0.1,0.2,0.25'
_aflow_Strukturbericht '$E6_{2}$'
_aflow_Pearson 'tP11'

_symmetry_space_group_name_H-M "P 4/m 2/m 2/m"
_symmetry_Int_Tables_number 123
 
_cell_length_a    6.32000
_cell_length_b    6.32000
_cell_length_c    5.56000
_cell_angle_alpha 90.00000
_cell_angle_beta  90.00000
_cell_angle_gamma 90.00000
 
loop_
_space_group_symop_id
_space_group_symop_operation_xyz
1 x,y,z
2 x,-y,-z
3 -x,y,-z
4 -x,-y,z
5 -y,-x,-z
6 -y,x,z
7 y,-x,z
8 y,x,-z
9 -x,-y,-z
10 -x,y,z
11 x,-y,z
12 x,y,-z
13 y,x,z
14 y,-x,-z
15 -y,x,-z
16 -y,-x,z
 
loop_
_atom_site_label
_atom_site_type_symbol
_atom_site_symmetry_multiplicity
_atom_site_Wyckoff_label
_atom_site_fract_x
_atom_site_fract_y
_atom_site_fract_z
_atom_site_occupancy
Sr1 Sr 1 a 0.00000 0.00000 0.00000 1.00000
O1 O 2 h 0.50000 0.50000 0.10000 1.00000
H2O1 H2O 8 r 0.20000 0.20000 0.25000 1.00000