# CIF file 
data_findsym-output
_audit_creation_method FINDSYM

_chemical_name_mineral 'Li7O6Ta'
_chemical_formula_sum 'Li8 O6 Ta'

loop_
_publ_author_name
 'G. Wehrum'
 'R. Hoppe'
_journal_name_full_name
;
 Zeitschrift fur Anorganische und Allgemeine Chemie
;
_journal_volume 620
_journal_year 1994
_journal_page_first 659
_journal_page_last 664
_publ_Section_title
;
 Zur Kenntnis `Kationen-reicher\' Tantalate {\"U}ber Li$_{7}$[TaO$_{6}$]
;

# Found in The solid-state Li-ion conductor Li$_{7}$TaO$_{6}$: A combined computational and experimental study, {arXiv:1910.11079 [cond-mat.mtrl-sci]}, 2019

_aflow_title 'Li$_{7}$TaO$_{6}$ Structure'
_aflow_proto 'A8B6C_hR15_148_cf_f_a'
_aflow_params 'a,c/a,x_{2},x_{3},y_{3},z_{3},x_{4},y_{4},z_{4}'
_aflow_params_values '5.358,2.81317655842,0.6615,0.5001,-0.2379,0.1053,0.7714,-0.6257,0.0853'
_aflow_Strukturbericht 'None'
_aflow_Pearson 'hR15'

_symmetry_space_group_name_H-M "R -3 (hexagonal axes)"
_symmetry_Int_Tables_number 148
 
_cell_length_a    5.35800
_cell_length_b    5.35800
_cell_length_c    15.07300
_cell_angle_alpha 90.00000
_cell_angle_beta  90.00000
_cell_angle_gamma 120.00000
 
loop_
_space_group_symop_id
_space_group_symop_operation_xyz
1 x,y,z
2 -y,x-y,z
3 -x+y,-x,z
4 -x,-y,-z
5 y,-x+y,-z
6 x-y,x,-z
7 x+1/3,y+2/3,z+2/3
8 -y+1/3,x-y+2/3,z+2/3
9 -x+y+1/3,-x+2/3,z+2/3
10 -x+1/3,-y+2/3,-z+2/3
11 y+1/3,-x+y+2/3,-z+2/3
12 x-y+1/3,x+2/3,-z+2/3
13 x+2/3,y+1/3,z+1/3
14 -y+2/3,x-y+1/3,z+1/3
15 -x+y+2/3,-x+1/3,z+1/3
16 -x+2/3,-y+1/3,-z+1/3
17 y+2/3,-x+y+1/3,-z+1/3
18 x-y+2/3,x+1/3,-z+1/3
 
loop_
_atom_site_label
_atom_site_type_symbol
_atom_site_symmetry_multiplicity
_atom_site_Wyckoff_label
_atom_site_fract_x
_atom_site_fract_y
_atom_site_fract_z
_atom_site_occupancy
Ta1 Ta 3 a 0.00000 0.00000 0.00000 1.00000
Li1 Li 6 c 0.00000 0.00000 0.66150 0.50000
Li2 Li 18 f 0.37760 0.36040 0.12250 1.00000
O1 O 18 f 0.69440 0.70270 0.07700 1.00000
