# CIF file 
data_findsym-output
_audit_creation_method FINDSYM

_chemical_name_mineral 'Fe8N'
_chemical_formula_sum 'Fe8 N'

loop_
_publ_author_name
 'S. Yamashita'
 'Y. Masubuchi'
 'Y. Nakazawa'
 'T. Okayama'
 'M. Tsuchiya'
 'S. Kikkawa'
_journal_name_full_name
;
 Journal of Solid State Chemistry
;
_journal_volume 194
_journal_year 2012
_journal_page_first 76
_journal_page_last 79
_publ_Section_title
;
 Crystal structure and magnetic properties of ``$\alpha$$\'\'$-Fe$_{16}$N$_{2}$\'\' containing reisdual $\alpha$-Fe prepared by low-temperature ammonia nitridation
;

_aflow_title 'Fe$_{8}$N ($D2_{g}$) Structure'
_aflow_proto 'A8B_tI18_139_deh_a'
_aflow_params 'a,c/a,z_{3},x_{4}'
_aflow_params_values '5.71361,1.10055114017,0.2922,0.24433'
_aflow_Strukturbericht '$D2_{g}$'
_aflow_Pearson 'tI18'

_symmetry_space_group_name_H-M "I 4/m 2/m 2/m"
_symmetry_Int_Tables_number 139
 
_cell_length_a    5.71361
_cell_length_b    5.71361
_cell_length_c    6.28812
_cell_angle_alpha 90.00000
_cell_angle_beta  90.00000
_cell_angle_gamma 90.00000
 
loop_
_space_group_symop_id
_space_group_symop_operation_xyz
1 x,y,z
2 x,-y,-z
3 -x,y,-z
4 -x,-y,z
5 -y,-x,-z
6 -y,x,z
7 y,-x,z
8 y,x,-z
9 -x,-y,-z
10 -x,y,z
11 x,-y,z
12 x,y,-z
13 y,x,z
14 y,-x,-z
15 -y,x,-z
16 -y,-x,z
17 x+1/2,y+1/2,z+1/2
18 x+1/2,-y+1/2,-z+1/2
19 -x+1/2,y+1/2,-z+1/2
20 -x+1/2,-y+1/2,z+1/2
21 -y+1/2,-x+1/2,-z+1/2
22 -y+1/2,x+1/2,z+1/2
23 y+1/2,-x+1/2,z+1/2
24 y+1/2,x+1/2,-z+1/2
25 -x+1/2,-y+1/2,-z+1/2
26 -x+1/2,y+1/2,z+1/2
27 x+1/2,-y+1/2,z+1/2
28 x+1/2,y+1/2,-z+1/2
29 y+1/2,x+1/2,z+1/2
30 y+1/2,-x+1/2,-z+1/2
31 -y+1/2,x+1/2,-z+1/2
32 -y+1/2,-x+1/2,z+1/2
 
loop_
_atom_site_label
_atom_site_type_symbol
_atom_site_symmetry_multiplicity
_atom_site_Wyckoff_label
_atom_site_fract_x
_atom_site_fract_y
_atom_site_fract_z
_atom_site_occupancy
N1 N 2 a 0.00000 0.00000 0.00000 1.00000
Fe1 Fe 4 d 0.00000 0.50000 0.25000 1.00000
Fe2 Fe 4 e 0.00000 0.00000 0.29220 1.00000
Fe3 Fe 8 h 0.24433 0.24433 0.00000 1.00000