# CIF file 
data_findsym-output
_audit_creation_method FINDSYM

_chemical_name_mineral 'Co2Al9'
_chemical_formula_sum 'Al9 Co2'

loop_
_publ_author_name
 'A. M. B. Douglas'
_journal_name_full_name
;
 Acta Crystallographica Section B: Structural Science
;
_journal_volume 3
_journal_year 1950
_journal_page_first 19
_journal_page_last 24
_publ_Section_title
;
 The Structure of Co$_{2}$Al$_{9}$
;

_aflow_title 'Co$_{2}$Al$_{9}$ ($D8_{d}$) Structure'
_aflow_proto 'A9B2_mP22_14_a4e_e'
_aflow_params 'a,b/a,c/a,\beta,x_{2},y_{2},z_{2},x_{3},y_{3},z_{3},x_{4},y_{4},z_{4},x_{5},y_{5},z_{5},x_{6},y_{6},z_{6}'
_aflow_params_values '6.213,1.01239336874,1.37719298246,94.76,0.4044,0.5381,0.2682,0.0889,0.2101,0.293,0.3891,0.3069,-0.0014,0.2159,0.8852,0.0417,0.2646,0.8851,0.3335'
_aflow_Strukturbericht '$D8_{d}$'
_aflow_Pearson 'mP22'

_symmetry_space_group_name_H-M "P 1 21/c 1"
_symmetry_Int_Tables_number 14
 
_cell_length_a    6.21300
_cell_length_b    6.29000
_cell_length_c    8.55650
_cell_angle_alpha 90.00000
_cell_angle_beta  94.76000
_cell_angle_gamma 90.00000
 
loop_
_space_group_symop_id
_space_group_symop_operation_xyz
1 x,y,z
2 -x,y+1/2,-z+1/2
3 -x,-y,-z
4 x,-y+1/2,z+1/2
 
loop_
_atom_site_label
_atom_site_type_symbol
_atom_site_symmetry_multiplicity
_atom_site_Wyckoff_label
_atom_site_fract_x
_atom_site_fract_y
_atom_site_fract_z
_atom_site_occupancy
Al1 Al 2 a 0.00000 0.00000 0.00000 1.00000
Al2 Al 4 e 0.40440 0.53810 0.26820 1.00000
Al3 Al 4 e 0.08890 0.21010 0.29300 1.00000
Al4 Al 4 e 0.38910 0.30690 -0.00140 1.00000
Al5 Al 4 e 0.21590 0.88520 0.04170 1.00000
Co1 Co 4 e 0.26460 0.88510 0.33350 1.00000