# CIF file 
data_findsym-output
_audit_creation_method FINDSYM

_chemical_name_mineral 'Cl9K3W2'
_chemical_formula_sum 'Cl9 K3 W2'

loop_
_publ_author_name
 'W. H. {Watson, Jr.}'
 'J. Waser'
_journal_name_full_name
;
 Acta Cristallographica
;
_journal_volume 11
_journal_year 1958
_journal_page_first 689
_journal_page_last 692
_publ_Section_title
;
 Refinement of the structure of tripotassiumditungsten enneachloride, K$_{3}$W$_{2}$Cl$_{9}$
;

_aflow_title 'K$_{3}$W$_{2}$Cl$_{9}$ ($K7_{1}$) Structure'
_aflow_proto 'A9B3C2_hP28_176_hi_af_f'
_aflow_params 'a,c/a,z_{2},z_{3},x_{4},y_{4},x_{5},y_{5},z_{5}'
_aflow_params_values '7.17,2.26638772664,0.5718,0.3241,0.4588,0.4472,0.1348,0.3506,0.4074'
_aflow_Strukturbericht '$K7_{1}$'
_aflow_Pearson 'hP28'

_symmetry_space_group_name_H-M "P 63/m"
_symmetry_Int_Tables_number 176
 
_cell_length_a    7.17000
_cell_length_b    7.17000
_cell_length_c    16.25000
_cell_angle_alpha 90.00000
_cell_angle_beta  90.00000
_cell_angle_gamma 120.00000
 
loop_
_space_group_symop_id
_space_group_symop_operation_xyz
1 x,y,z
2 x-y,x,z+1/2
3 -y,x-y,z
4 -x,-y,z+1/2
5 -x+y,-x,z
6 y,-x+y,z+1/2
7 -x,-y,-z
8 -x+y,-x,-z+1/2
9 y,-x+y,-z
10 x,y,-z+1/2
11 x-y,x,-z
12 -y,x-y,-z+1/2
 
loop_
_atom_site_label
_atom_site_type_symbol
_atom_site_symmetry_multiplicity
_atom_site_Wyckoff_label
_atom_site_fract_x
_atom_site_fract_y
_atom_site_fract_z
_atom_site_occupancy
K1 K 2 a 0.00000 0.00000 0.25000 1.00000
K2 K 4 f 0.33333 0.66667 0.57180 1.00000
W1 W 4 f 0.33333 0.66667 0.32410 1.00000
Cl1 Cl 6 h 0.45880 0.44720 0.25000 1.00000
Cl2 Cl 12 i 0.13480 0.35060 0.40740 1.00000