# CIF file 
data_findsym-output
_audit_creation_method FINDSYM

_chemical_name_mineral 'Cl9Cs3Tl2'
_chemical_formula_sum 'Cl9 Cs3 Tl2'

loop_
_publ_author_name
 'J. L. Hoard'
 'L. Goldstein'
_journal_name_full_name
;
 Journal of Chemical Physics
;
_journal_volume 3
_journal_year 1935
_journal_page_first 199
_journal_page_last 202
_publ_Section_title
;
 The Crystal Structure of Cesium Enneachlordithalliate, Cs$_{3}$Tl$_{2}$Cl$_{9}$
;

# Found in The American Mineralogist Crystal Structure Database, 2003

_aflow_title 'Cs$_{3}$Tl$_{2}$Cl$_{9}$ ($K7_{2}$) Structure'
_aflow_proto 'A9B3C2_hR28_167_ef_e_c'
_aflow_params 'a,c/a,x_{1},x_{2},x_{3},x_{4},y_{4},z_{4}'
_aflow_params_values '12.79567,1.4299790476,0.348,0.097,0.58333,0.586,-0.755,0.42601'
_aflow_Strukturbericht '$K7_{2}$'
_aflow_Pearson 'hR28'

_symmetry_space_group_name_H-M "R -3 2/c (hexagonal axes)"
_symmetry_Int_Tables_number 167
 
_cell_length_a    12.79567
_cell_length_b    12.79567
_cell_length_c    18.29754
_cell_angle_alpha 90.00000
_cell_angle_beta  90.00000
_cell_angle_gamma 120.00000
 
loop_
_space_group_symop_id
_space_group_symop_operation_xyz
1 x,y,z
2 -y,x-y,z
3 -x+y,-x,z
4 y,x,-z+1/2
5 -x,-x+y,-z+1/2
6 x-y,-y,-z+1/2
7 -x,-y,-z
8 y,-x+y,-z
9 x-y,x,-z
10 -y,-x,z+1/2
11 x,x-y,z+1/2
12 -x+y,y,z+1/2
13 x+1/3,y+2/3,z+2/3
14 -y+1/3,x-y+2/3,z+2/3
15 -x+y+1/3,-x+2/3,z+2/3
16 y+1/3,x+2/3,-z+1/6
17 -x+1/3,-x+y+2/3,-z+1/6
18 x-y+1/3,-y+2/3,-z+1/6
19 -x+1/3,-y+2/3,-z+2/3
20 y+1/3,-x+y+2/3,-z+2/3
21 x-y+1/3,x+2/3,-z+2/3
22 -y+1/3,-x+2/3,z+1/6
23 x+1/3,x-y+2/3,z+1/6
24 -x+y+1/3,y+2/3,z+1/6
25 x+2/3,y+1/3,z+1/3
26 -y+2/3,x-y+1/3,z+1/3
27 -x+y+2/3,-x+1/3,z+1/3
28 y+2/3,x+1/3,-z+5/6
29 -x+2/3,-x+y+1/3,-z+5/6
30 x-y+2/3,-y+1/3,-z+5/6
31 -x+2/3,-y+1/3,-z+1/3
32 y+2/3,-x+y+1/3,-z+1/3
33 x-y+2/3,x+1/3,-z+1/3
34 -y+2/3,-x+1/3,z+5/6
35 x+2/3,x-y+1/3,z+5/6
36 -x+y+2/3,y+1/3,z+5/6
 
loop_
_atom_site_label
_atom_site_type_symbol
_atom_site_symmetry_multiplicity
_atom_site_Wyckoff_label
_atom_site_fract_x
_atom_site_fract_y
_atom_site_fract_z
_atom_site_occupancy
Tl1 Tl 12 c 0.00000 0.00000 0.34800 1.00000
Cl1 Cl 18 e 0.15300 0.00000 0.25000 1.00000
Cs1 Cs 18 e 0.66667 0.00000 0.25000 1.00000
Cl2 Cl 36 f 0.50033 0.84067 0.08567 1.00000
