# CIF file 
data_findsym-output
_audit_creation_method FINDSYM

_chemical_name_mineral 'Chalcanthite'
_chemical_formula_sum 'Cu H10 O9 S'

loop_
_publ_author_name
 'G. E. Bacon'
 'D. H. Titterton'
_journal_name_full_name
;
 Zeitschrift f{\"u}r Kristallographie - Crystalline Materials
;
_journal_volume 141
_journal_year 1975
_journal_page_first 330
_journal_page_last 341
_publ_Section_title
;
 Neutron-diffraction studies of CuSO$_{4}$$\cdot$5H$_{2}$O and CuSO$_{4}$$\cdot$5D$_{2}$O
;

# Found in The American Mineralogist Crystal Structure Database, 2003

_aflow_title 'Chalcanthite (CuSO$_{4}$$\cdot$5H$_{2}$O, $H4_{10}$) Structure'
_aflow_proto 'AB10C9D_aP42_2_ae_10i_9i_i'
_aflow_params 'a,b/a,c/a,\alpha,\beta,\gamma,x_{3},y_{3},z_{3},x_{4},y_{4},z_{4},x_{5},y_{5},z_{5},x_{6},y_{6},z_{6},x_{7},y_{7},z_{7},x_{8},y_{8},z_{8},x_{9},y_{9},z_{9},x_{10},y_{10},z_{10},x_{11},y_{11},z_{11},x_{12},y_{12},z_{12},x_{13},y_{13},z_{13},x_{14},y_{14},z_{14},x_{15},y_{15},z_{15},x_{16},y_{16},z_{16},x_{17},y_{17},z_{17},x_{18},y_{18},z_{18},x_{19},y_{19},z_{19},x_{20},y_{20},z_{20},x_{21},y_{21},z_{21},x_{22},y_{22},z_{22}'
_aflow_params_values '6.141,1.74824947077,0.974759811106,82.26667,107.43333,102.66667,0.898,0.1412,0.2547,0.7185,0.0126,0.2283,0.301,0.2016,0.0667,0.3341,0.127,0.3188,0.3231,0.3785,0.3406,0.6016,0.3937,0.4256,0.8012,0.4011,0.8847,0.857,0.3845,0.162,0.6033,0.1321,0.6671,0.4108,0.1932,0.6922,0.9072,0.152,0.6734,0.2442,0.3172,0.796,0.8061,0.3724,0.6363,0.0444,0.3022,0.3849,0.8176,0.0737,0.1519,0.2887,0.1177,0.149,0.4654,0.4063,0.2975,0.756,0.4161,0.0191,0.435,0.1263,0.6289,0.0133,0.2871,0.6253'
_aflow_Strukturbericht '$H4_{10}$'
_aflow_Pearson 'aP42'

_symmetry_space_group_name_H-M "P -1"
_symmetry_Int_Tables_number 2
 
_cell_length_a      6.14100
_cell_length_b     10.73600
_cell_length_c      5.98600
_cell_angle_alpha  82.26667
_cell_angle_beta  107.43333
_cell_angle_gamma 102.66667
 
loop_
_space_group_symop_id
_space_group_symop_operation_xyz
1 x,y,z
2 -x,-y,-z
 
loop_
_atom_site_label
_atom_site_type_symbol
_atom_site_symmetry_multiplicity
_atom_site_Wyckoff_label
_atom_site_fract_x
_atom_site_fract_y
_atom_site_fract_z
_atom_site_occupancy
Cu1 Cu 1 a 0.0000 0.0000 0.0000 1.00000
Cu2 Cu 1 e 0.5000 0.5000 0.0000 1.00000
H1 H 2 i 0.8980 0.1412 0.2547 1.00000
H2 H 2 i 0.7185 0.0126 0.2283 1.00000
H3 H 2 i 0.3010 0.2016 0.0667 1.00000
H4 H 2 i 0.3341 0.1270 0.3188 1.00000
H5 H 2 i 0.3231 0.3785 0.3406 1.00000
H6 H 2 i 0.6016 0.3937 0.4256 1.00000
H7 H 2 i 0.8012 0.4011 0.8847 1.00000
H8 H 2 i 0.8570 0.3845 0.1620 1.00000
H9 H 2 i 0.6033 0.1321 0.6671 1.00000
H10 H 2 i 0.4108 0.1932 0.6922 1.00000
O1 O 2 i 0.9072 0.1520 0.6734 1.00000
O2 O 2 i 0.2442 0.3172 0.7960 1.00000
O3 O 2 i 0.8061 0.3724 0.6363 1.00000
O4 O 2 i 0.0444 0.3022 0.3849 1.00000
O5 O 2 i 0.8176 0.0737 0.1519 1.00000
O6 O 2 i 0.2887 0.1177 0.1490 1.00000
O7 O 2 i 0.4654 0.4063 0.2975 1.00000
O8 O 2 i 0.7560 0.4161 0.0191 1.00000
O9 O 2 i 0.4350 0.1263 0.6289 1.00000
S1 S 2 i 0.0133 0.2871 0.6253 1.00000