# CIF file 
data_findsym-output
_audit_creation_method FINDSYM

_chemical_name_mineral 'Diamminetriamidodizinc chloride'
_chemical_formula_sum 'Cl H12 N5 Zn2'

loop_
_publ_author_name
 'T. M. M. Richter'
 'S. Strobel'
 'N. S. A. Alt'
 'E. Schl\"{u}cker'
 'R. Niewa'
_journal_name_full_name
;
 Inorganics
;
_journal_volume 4
_journal_year 2016
_journal_page_first 41
_journal_page_last 41
_publ_Section_title
;
 Ammonothermal Synthesis and Crystal Structures of Diamminetriamidodizinc Chloride [Zn$_{2}$(NH$_{3}$)$_{2}$(NH$_{2}$)$_{3}$]Cl and Diamminemonoamidozinc Bromide [Zn(NH$_{3}$)$_{2}$(NH$_{2}$)]Br
;

_aflow_title 'Diamminetriamidodizinc Chloride ([Zn$_{2}$(NH$_{3}$)$_{2}$(NH$_{2}$)$_{3}$]Cl) Structure'
_aflow_proto 'AB12C5D2_oP40_18_a_6c_b2c_c'
_aflow_params 'a,b/a,c/a,z_{1},z_{2},x_{3},y_{3},z_{3},x_{4},y_{4},z_{4},x_{5},y_{5},z_{5},x_{6},y_{6},z_{6},x_{7},y_{7},z_{7},x_{8},y_{8},z_{8},x_{9},y_{9},z_{9},x_{10},y_{10},z_{10},x_{11},y_{11},z_{11}'
_aflow_params_values '5.7715,1.77352508014,1.13412457767,-0.0434,0.395,0.35,0.248,0.67,0.5,0.354,0.67,0.0,0.259,-0.09,0.09,0.36,-0.04,0.41,0.118,0.08,0.354,0.01,0.65,0.449,0.3291,0.553,0.007,0.3377,0.853,0.1009,0.3376,0.5374'
_aflow_Strukturbericht 'None'
_aflow_Pearson 'oP40'

_symmetry_space_group_name_H-M "P 21 21 2"
_symmetry_Int_Tables_number 18
 
_cell_length_a    5.77150
_cell_length_b    10.23590
_cell_length_c    6.54560
_cell_angle_alpha 90.00000
_cell_angle_beta  90.00000
_cell_angle_gamma 90.00000
 
loop_
_space_group_symop_id
_space_group_symop_operation_xyz
1 x,y,z
2 x+1/2,-y+1/2,-z
3 -x+1/2,y+1/2,-z
4 -x,-y,z
 
loop_
_atom_site_label
_atom_site_type_symbol
_atom_site_symmetry_multiplicity
_atom_site_Wyckoff_label
_atom_site_fract_x
_atom_site_fract_y
_atom_site_fract_z
_atom_site_occupancy
Cl1 Cl 2 a 0.00000 0.00000 -0.04340 1.00000
N1 N 2 b 0.00000 0.50000 0.39500 1.00000
H1 H 4 c 0.35000 0.24800 0.67000 1.00000
H2 H 4 c 0.50000 0.35400 0.67000 1.00000
H3 H 4 c 0.00000 0.25900 -0.09000 1.00000
H4 H 4 c 0.09000 0.36000 -0.04000 1.00000
H5 H 4 c 0.41000 0.11800 0.08000 1.00000
H6 H 4 c 0.35400 0.01000 0.65000 1.00000
N2 N 4 c 0.44900 0.32910 0.55300 1.00000
N3 N 4 c 0.00700 0.33770 0.85300 1.00000
Zn1 Zn 4 c 0.10090 0.33760 0.53740 1.00000