# CIF file 
data_findsym-output
_audit_creation_method FINDSYM

_chemical_name_mineral 'Alum'
_chemical_formula_sum 'Cr (H2O)12 Na O8 S2'

loop_
_publ_author_name
 'A. H. C. Ledsham'
 'H. Steeple'
_journal_name_full_name
;
 Acta Crystallographica Section B: Structural Science
;
_journal_volume 24
_journal_year 1968
_journal_page_first 1287
_journal_page_last 1289
_publ_Section_title
;
 The crystal structure of sodium chromium alum and caesium chromium alum
;

_aflow_title 'NaCr(SO$_{4}$)$_{2}$$\cdot$12H$_{2}$O Alum Structure'
_aflow_proto 'AB12CD8E2_cP96_205_a_2d_b_cd_c'
_aflow_params 'a,x_{3},x_{4},x_{5},y_{5},z_{5},x_{6},y_{6},z_{6},x_{7},y_{7},z_{7}'
_aflow_params_values '12.4,0.239,0.31,0.158,0.014,0.018,0.042,0.136,0.302,0.307,0.224,-0.08'
_aflow_Strukturbericht 'None'
_aflow_Pearson 'cP96'

_symmetry_space_group_name_H-M "P 21/a -3"
_symmetry_Int_Tables_number 205
 
_cell_length_a    12.40000
_cell_length_b    12.40000
_cell_length_c    12.40000
_cell_angle_alpha 90.00000
_cell_angle_beta  90.00000
_cell_angle_gamma 90.00000
 
loop_
_space_group_symop_id
_space_group_symop_operation_xyz
1 x,y,z
2 x+1/2,-y+1/2,-z
3 -x,y+1/2,-z+1/2
4 -x+1/2,-y,z+1/2
5 y,z,x
6 y+1/2,-z+1/2,-x
7 -y,z+1/2,-x+1/2
8 -y+1/2,-z,x+1/2
9 z,x,y
10 z+1/2,-x+1/2,-y
11 -z,x+1/2,-y+1/2
12 -z+1/2,-x,y+1/2
13 -x,-y,-z
14 -x+1/2,y+1/2,z
15 x,-y+1/2,z+1/2
16 x+1/2,y,-z+1/2
17 -y,-z,-x
18 -y+1/2,z+1/2,x
19 y,-z+1/2,x+1/2
20 y+1/2,z,-x+1/2
21 -z,-x,-y
22 -z+1/2,x+1/2,y
23 z,-x+1/2,y+1/2
24 z+1/2,x,-y+1/2
 
loop_
_atom_site_label
_atom_site_type_symbol
_atom_site_symmetry_multiplicity
_atom_site_Wyckoff_label
_atom_site_fract_x
_atom_site_fract_y
_atom_site_fract_z
_atom_site_occupancy
Cr1 Cr 4 a 0.00000 0.00000 0.00000 1.00000
Na1 Na 4 b 0.50000 0.50000 0.50000 1.00000
O1 O 8 c 0.23900 0.23900 0.23900 1.00000
S1 S 8 c 0.31000 0.31000 0.31000 1.00000
H2O1 H2O 24 d 0.15800 0.01400 0.01800 1.00000
H2O2 H2O 24 d 0.04200 0.13600 0.30200 1.00000
O2 O 24 d 0.30700 0.22400 -0.0800 1.00000