# CIF file 
data_findsym-output
_audit_creation_method FINDSYM

_chemical_name_mineral 'Autunite'
_chemical_formula_sum 'Ca H22 O23 P2 U2'

loop_
_publ_author_name
 'A. J. Locock'
 'P. C. Burns'
_journal_name_full_name
;
 American Mineralogist
;
_journal_volume 88
_journal_year 2003
_journal_page_first 240
_journal_page_last 244
_publ_Section_title
;
 The crystal structure of synthetic autunite, Ca[(UO$_{2}$)(PO$_{4}$)]$_{2}$(H$_{2}$O)$_{11}$
;

# Found in The American Mineralogist Crystal Structure Database, 2003

_aflow_title 'Autunite \{Ca[(UO$_{2}$)(PO$_{4}$)]$_{2}$(H$_{2}$O)$_{11}$\} Structure'
_aflow_proto 'AB22C23D2E2_oP200_62_c_11d_3c10d_d_d'
_aflow_params 'a,b/a,c/a,x_{1},z_{1},x_{2},z_{2},x_{3},z_{3},x_{4},z_{4},x_{5},y_{5},z_{5},x_{6},y_{6},z_{6},x_{7},y_{7},z_{7},x_{8},y_{8},z_{8},x_{9},y_{9},z_{9},x_{10},y_{10},z_{10},x_{11},y_{11},z_{11},x_{12},y_{12},z_{12},x_{13},y_{13},z_{13},x_{14},y_{14},z_{14},x_{15},y_{15},z_{15},x_{16},y_{16},z_{16},x_{17},y_{17},z_{17},x_{18},y_{18},z_{18},x_{19},y_{19},z_{19},x_{20},y_{20},z_{20},x_{21},y_{21},z_{21},x_{22},y_{22},z_{22},x_{23},y_{23},z_{23},x_{24},y_{24},z_{24},x_{25},y_{25},z_{25},x_{26},y_{26},z_{26},x_{27},y_{27},z_{27}'
_aflow_params_values '14.0135,1.47800335391,0.499225746601,0.6251,-0.0499,0.7409,0.2149,0.4998,0.2167,0.6263,0.5757,0.226,0.783,0.722,0.697,0.133,-0.088,0.721,0.154,0.715,0.533,0.1191,0.835,0.508,0.165,0.701,0.537,0.7851,0.733,0.63,0.2056,0.544,0.772,0.174,0.558,0.8972,0.155,0.473,0.568,0.8819,0.575,0.6483,0.836,0.522,0.6235,-0.0449,0.2482,0.625,0.1278,0.2472,0.6252,0.044,0.5733,0.5373,-0.044,0.7451,0.7118,-0.0443,0.7553,0.6206,0.0452,-0.0774,0.7368,0.1647,0.851,0.5126,0.1645,0.8438,0.8257,0.1614,0.4745,0.5759,0.8379,0.5243,0.6245,0.0003,0.7478,0.625,0.0412,0.2498'
_aflow_Strukturbericht 'None'
_aflow_Pearson 'oP200'

_symmetry_space_group_name_H-M "P 21/n 21/m 21/a"
_symmetry_Int_Tables_number 62
 
_cell_length_a    14.01350
_cell_length_b    20.71200
_cell_length_c    6.99590
_cell_angle_alpha 90.00000
_cell_angle_beta  90.00000
_cell_angle_gamma 90.00000
 
loop_
_space_group_symop_id
_space_group_symop_operation_xyz
1 x,y,z
2 x+1/2,-y+1/2,-z+1/2
3 -x,y+1/2,-z
4 -x+1/2,-y,z+1/2
5 -x,-y,-z
6 -x+1/2,y+1/2,z+1/2
7 x,-y+1/2,z
8 x+1/2,y,-z+1/2
 
loop_
_atom_site_label
_atom_site_type_symbol
_atom_site_symmetry_multiplicity
_atom_site_Wyckoff_label
_atom_site_fract_x
_atom_site_fract_y
_atom_site_fract_z
_atom_site_occupancy
Ca1 Ca 4 c 0.62510 0.25000 -0.04990 1.00000
O1 O 4 c 0.74090 0.25000 0.21490 1.00000
O2 O 4 c 0.49980 0.25000 0.21670 1.00000
O3 O 4 c 0.62630 0.25000 0.57570 1.00000
H1 H 8 d 0.22600 0.78300 0.72200 1.00000
H2 H 8 d 0.69700 0.13300 -0.08800 1.00000
H3 H 8 d 0.72100 0.15400 0.71500 1.00000
H4 H 8 d 0.53300 0.11910 0.83500 1.00000
H5 H 8 d 0.50800 0.16500 0.70100 1.00000
H6 H 8 d 0.53700 0.78510 0.73300 1.00000
H7 H 8 d 0.63000 0.20560 0.54400 1.00000
H8 H 8 d 0.77200 0.17400 0.55800 1.00000
H9 H 8 d 0.89720 0.15500 0.47300 1.00000
H10 H 8 d 0.56800 0.88190 0.57500 1.00000
H11 H 8 d 0.64830 0.83600 0.52200 1.00000
O4 O 8 d 0.62350 -0.04490 0.24820 1.00000
O5 O 8 d 0.62500 0.12780 0.24720 1.00000
O6 O 8 d 0.62520 0.04400 0.57330 1.00000
O7 O 8 d 0.53730 -0.04400 0.74510 1.00000
O8 O 8 d 0.71180 -0.04430 0.75530 1.00000
O9 O 8 d 0.62060 0.04520 -0.07740 1.00000
O10 O 8 d 0.73680 0.16470 0.85100 1.00000
O11 O 8 d 0.51260 0.16450 0.84380 1.00000
O12 O 8 d 0.82570 0.16140 0.47450 1.00000
O13 O 8 d 0.57590 0.83790 0.52430 1.00000
P1 P 8 d 0.62450 0.00030 0.74780 1.00000
U1 U 8 d 0.62500 0.04120 0.24980 1.00000