# CIF file 
data_findsym-output
_audit_creation_method FINDSYM

_chemical_name_mineral 'CdI2'
_chemical_formula_sum 'Cd I2'

loop_
_publ_author_name
 'O. Hassel'
_journal_name_full_name
;
 Zeitschrift f\"{u}r Physikalische Chemie
;
_journal_volume 22B
_journal_year 1933
_journal_page_first 333
_journal_page_last 334
_publ_Section_title
;
 Zur Kristallstruktur des Cadmiumjodids CdJ$_{2}$
;

# Found in Strukturbericht Band III 1933-1935, 1937

_aflow_title '$C27$ (CdI$_{2}$) ({\em{questionable}}) Structure'
_aflow_proto 'AB2_hP6_186_b_ab'
_aflow_params 'a,c/a,z_{1},z_{2},z_{3}'
_aflow_params_values '4.24,3.22405660377,0.375,0.0,0.625'
_aflow_Strukturbericht '$C27$'
_aflow_Pearson 'hP6'

_symmetry_space_group_name_H-M "P 63 m c"
_symmetry_Int_Tables_number 186
 
_cell_length_a    4.24000
_cell_length_b    4.24000
_cell_length_c    13.67000
_cell_angle_alpha 90.00000
_cell_angle_beta  90.00000
_cell_angle_gamma 120.00000
 
loop_
_space_group_symop_id
_space_group_symop_operation_xyz
1 x,y,z
2 x-y,x,z+1/2
3 -y,x-y,z
4 -x,-y,z+1/2
5 -x+y,-x,z
6 y,-x+y,z+1/2
7 -x+y,y,z
8 -x,-x+y,z+1/2
9 -y,-x,z
10 x-y,-y,z+1/2
11 x,x-y,z
12 y,x,z+1/2
 
loop_
_atom_site_label
_atom_site_type_symbol
_atom_site_symmetry_multiplicity
_atom_site_Wyckoff_label
_atom_site_fract_x
_atom_site_fract_y
_atom_site_fract_z
_atom_site_occupancy
I1 I 2 a 0.00000 0.00000 0.37500 1.00000
Cd1 Cd 2 b 0.33333 0.66667 0.00000 1.00000
I2 I 2 b 0.33333 0.66667 0.62500 1.00000
