# CIF file 
data_findsym-output
_audit_creation_method FINDSYM

_chemical_name_mineral 'MoP2'
_chemical_formula_sum 'Mo P2'

loop_
_publ_author_name
 'S. Rundqvist'
 'T. Lundstr\"{o}m'
_journal_name_full_name
;
 Acta Chemica Scandinavica
;
_journal_volume 17
_journal_year 1963
_journal_page_first 37
_journal_page_last 46
_publ_Section_title
;
 X-Ray Studies of Molybdenum and Tungsten Phosphides
;

_aflow_title 'MoP$_{2}$ Structure'
_aflow_proto 'AB2_oC12_36_a_2a'
_aflow_params 'a,b/a,c/a,y_{1},z_{1},y_{2},z_{2},y_{3},z_{3}'
_aflow_params_values '3.145,3.55612082671,1.84702384738,0.0934,0.0,0.294,0.803,0.426,0.121'
_aflow_Strukturbericht 'None'
_aflow_Pearson 'oC12'

_symmetry_space_group_name_H-M "C m c 21"
_symmetry_Int_Tables_number 36
 
_cell_length_a    3.14500
_cell_length_b    11.18400
_cell_length_c    5.80889
_cell_angle_alpha 90.00000
_cell_angle_beta  90.00000
_cell_angle_gamma 90.00000
 
loop_
_space_group_symop_id
_space_group_symop_operation_xyz
1 x,y,z
2 -x,-y,z+1/2
3 -x,y,z
4 x,-y,z+1/2
5 x+1/2,y+1/2,z
6 -x+1/2,-y+1/2,z+1/2
7 -x+1/2,y+1/2,z
8 x+1/2,-y+1/2,z+1/2
 
loop_
_atom_site_label
_atom_site_type_symbol
_atom_site_symmetry_multiplicity
_atom_site_Wyckoff_label
_atom_site_fract_x
_atom_site_fract_y
_atom_site_fract_z
_atom_site_occupancy
Mo1 Mo 4 a 0.00000 0.09340 0.00000 1.00000
P1 P 4 a 0.00000 0.29400 0.80300 1.00000
P2 P 4 a 0.00000 0.42600 0.12100 1.00000