# CIF file 
data_findsym-output
_audit_creation_method FINDSYM

_chemical_name_mineral 'FeS2Tl'
_chemical_formula_sum 'Fe S2 Tl'

loop_
_publ_author_name
 'A. Kutoglu'
_journal_name_full_name
;
 Naturwissenschaften
;
_journal_volume 61
_journal_year 1974
_journal_page_first 125
_journal_page_last 126
_publ_Section_title
;
 Synthese und Kristallstrukturen von TlFeS$_{2}$ und TlFeSe$_{2}$
;

# Found in Neutron-Diffraction Study in TlFeS$_{2}$ and TlFeSe$_{2}$ at Low Temperatures, 2014

_aflow_title 'Tetragonal TlFeS$_{2}$ Structure'
_aflow_proto 'AB2C_tI8_119_c_e_a'
_aflow_params 'a,c/a,z_{3}'
_aflow_params_values '3.753,3.55502264855,0.35126'
_aflow_Strukturbericht 'None'
_aflow_Pearson 'tI8'

_symmetry_space_group_name_H-M "I -4 m 2"
_symmetry_Int_Tables_number 119
 
_cell_length_a    3.75300
_cell_length_b    3.75300
_cell_length_c    13.34200
_cell_angle_alpha 90.00000
_cell_angle_beta  90.00000
_cell_angle_gamma 90.00000
 
loop_
_space_group_symop_id
_space_group_symop_operation_xyz
1 x,y,z
2 -x,-y,z
3 -y,-x,-z
4 y,x,-z
5 -x,y,z
6 x,-y,z
7 y,-x,-z
8 -y,x,-z
9 x+1/2,y+1/2,z+1/2
10 -x+1/2,-y+1/2,z+1/2
11 -y+1/2,-x+1/2,-z+1/2
12 y+1/2,x+1/2,-z+1/2
13 -x+1/2,y+1/2,z+1/2
14 x+1/2,-y+1/2,z+1/2
15 y+1/2,-x+1/2,-z+1/2
16 -y+1/2,x+1/2,-z+1/2
 
loop_
_atom_site_label
_atom_site_type_symbol
_atom_site_symmetry_multiplicity
_atom_site_Wyckoff_label
_atom_site_fract_x
_atom_site_fract_y
_atom_site_fract_z
_atom_site_occupancy
Tl1 Tl 2 a 0.00000 0.00000 0.00000 1.00000
Fe1 Fe 2 c 0.00000 0.50000 0.25000 1.00000
S1 S 4 e 0.00000 0.00000 0.35126 1.00000