# CIF file 
data_findsym-output
_audit_creation_method FINDSYM

_chemical_name_mineral 'Phosgenite'
_chemical_formula_sum 'C Cl2 O3 Pb2'

loop_
_publ_author_name
 'G. Giuseppetti'
 'C. Tadini'
_journal_name_full_name
;
 Tschermaks mineralogische und petrographische Mitteilungen
;
_journal_volume 21
_journal_year 1974
_journal_page_first 101
_journal_page_last 109
_publ_Section_title
;
 Reexamination of the crystal structure of phosgenite, Pb$_{2}$Cl$_{2}$(CO$_{3}$)
;

_aflow_title 'Phosgenite [Pb$_{2}$Cl$_{2}$(CO$_{3}$)] Structure'
_aflow_proto 'AB2C3D2_tP32_127_g_eh_gk_k'
_aflow_params 'a,c/a,z_{1},x_{2},x_{3},x_{4},x_{5},z_{5},x_{6},z_{6}'
_aflow_params_values '8.16,1.08860294118,0.7572,0.3257,0.211,0.3521,0.3726,0.1269,0.1659,0.2594'
_aflow_Strukturbericht 'None'
_aflow_Pearson 'tP32'

_symmetry_space_group_name_H-M "P 4/m 21/b 2/m"
_symmetry_Int_Tables_number 127
 
_cell_length_a    8.16000
_cell_length_b    8.16000
_cell_length_c    8.88300
_cell_angle_alpha 90.00000
_cell_angle_beta  90.00000
_cell_angle_gamma 90.00000
 
loop_
_space_group_symop_id
_space_group_symop_operation_xyz
1 x,y,z
2 x+1/2,-y+1/2,-z
3 -x+1/2,y+1/2,-z
4 -x,-y,z
5 -y+1/2,-x+1/2,-z
6 -y,x,z
7 y,-x,z
8 y+1/2,x+1/2,-z
9 -x,-y,-z
10 -x+1/2,y+1/2,z
11 x+1/2,-y+1/2,z
12 x,y,-z
13 y+1/2,x+1/2,z
14 y,-x,-z
15 -y,x,-z
16 -y+1/2,-x+1/2,z
 
loop_
_atom_site_label
_atom_site_type_symbol
_atom_site_symmetry_multiplicity
_atom_site_Wyckoff_label
_atom_site_fract_x
_atom_site_fract_y
_atom_site_fract_z
_atom_site_occupancy
Cl1 Cl 4 e 0.00000 0.00000 0.75720 1.00000
C1 C 4 g 0.32570 0.82570 0.00000 1.00000
O1 O 4 g 0.21100 0.71100 0.00000 1.00000
Cl2 Cl 4 h 0.35210 0.85210 0.50000 1.00000
O2 O 8 k 0.37260 0.87260 0.12690 1.00000
Pb1 Pb 8 k 0.16590 0.66590 0.25940 1.00000