# CIF file 
data_findsym-output
_audit_creation_method FINDSYM

_chemical_name_mineral 'Phosgenite'
_chemical_formula_sum 'C Cl2 O3 Pb2'

loop_
_publ_author_name
 'E. Onorato'
_journal_name_full_name
;
 Periodico di Mineralogia
;
_journal_volume 5
_journal_year 1934
_journal_page_first 1
_journal_page_last 27
_publ_Section_title
;
 La struttura della Fosgenite
;

# Found in Reexamination of the crystal structure of phosgenite, Pb$_{2}$Cl$_{2}$(CO$_{3}$), 1974

_aflow_title '$G7_{5}$ (PbCO$_{3}$ $\cdot$ PbCl$_{2}$, Phosgenite) ({\em{obsolete}}) Structure'
_aflow_proto 'AB2C3D2_tP16_90_c_f_ce_e'
_aflow_params 'a,c/a,z_{1},z_{2},x_{3},x_{4},x_{5}'
_aflow_params_values '8.12,0.541871921182,0.55,0.84,0.11,0.34,0.24'
_aflow_Strukturbericht '$G7_{5}$'
_aflow_Pearson 'tP16'

_symmetry_space_group_name_H-M "P 4 21 2"
_symmetry_Int_Tables_number 90
 
_cell_length_a    8.12000
_cell_length_b    8.12000
_cell_length_c    4.40000
_cell_angle_alpha 90.00000
_cell_angle_beta  90.00000
_cell_angle_gamma 90.00000
 
loop_
_space_group_symop_id
_space_group_symop_operation_xyz
1 x,y,z
2 x+1/2,-y+1/2,-z
3 -x+1/2,y+1/2,-z
4 -x,-y,z
5 -y,-x,-z
6 -y+1/2,x+1/2,z
7 y+1/2,-x+1/2,z
8 y,x,-z
 
loop_
_atom_site_label
_atom_site_type_symbol
_atom_site_symmetry_multiplicity
_atom_site_Wyckoff_label
_atom_site_fract_x
_atom_site_fract_y
_atom_site_fract_z
_atom_site_occupancy
C1 C 2 c 0.00000 0.50000 0.55000 1.00000
O1 O 2 c 0.00000 0.50000 0.84000 1.00000
O2 O 4 e 0.11000 0.11000 0.00000 1.00000
Pb1 Pb 4 e 0.34000 0.34000 0.00000 1.00000
Cl1 Cl 4 f 0.24000 0.24000 0.50000 1.00000