# CIF file 
data_findsym-output
_audit_creation_method FINDSYM

_chemical_name_mineral 'Autunite'
_chemical_formula_sum 'Ca P2 U2'

loop_
_publ_author_name
 'J. Beintema'
_journal_name_full_name
;
 Recueil des Travaux Chimiques des Pays-Bas
;
_journal_volume 57
_journal_year 1938
_journal_page_first 155
_journal_page_last 175
_publ_Section_title
;
 On the composition and the crystallography of autunite and the meta-autunites
;

_aflow_title '$H5_{9}$ [Autunite, Ca(UO$_{2}$)$_{2}$(PO$_{4}$)$_{2}$$\cdot$10$\frac{1}{2}$H$_{2}$O] ({\em{obsolete}}) Structure'
_aflow_proto 'AB2C2_tI10_139_a_d_e'
_aflow_params 'a,c/a,z_{3}'
_aflow_params_values '6.98,2.95558739255,0.208'
_aflow_Strukturbericht '$H5_{9}$'
_aflow_Pearson 'tI10'

_symmetry_space_group_name_H-M "I 4/m 2/m 2/m"
_symmetry_Int_Tables_number 139
 
_cell_length_a    6.98000
_cell_length_b    6.98000
_cell_length_c    20.63000
_cell_angle_alpha 90.00000
_cell_angle_beta  90.00000
_cell_angle_gamma 90.00000
 
loop_
_space_group_symop_id
_space_group_symop_operation_xyz
1 x,y,z
2 x,-y,-z
3 -x,y,-z
4 -x,-y,z
5 -y,-x,-z
6 -y,x,z
7 y,-x,z
8 y,x,-z
9 -x,-y,-z
10 -x,y,z
11 x,-y,z
12 x,y,-z
13 y,x,z
14 y,-x,-z
15 -y,x,-z
16 -y,-x,z
17 x+1/2,y+1/2,z+1/2
18 x+1/2,-y+1/2,-z+1/2
19 -x+1/2,y+1/2,-z+1/2
20 -x+1/2,-y+1/2,z+1/2
21 -y+1/2,-x+1/2,-z+1/2
22 -y+1/2,x+1/2,z+1/2
23 y+1/2,-x+1/2,z+1/2
24 y+1/2,x+1/2,-z+1/2
25 -x+1/2,-y+1/2,-z+1/2
26 -x+1/2,y+1/2,z+1/2
27 x+1/2,-y+1/2,z+1/2
28 x+1/2,y+1/2,-z+1/2
29 y+1/2,x+1/2,z+1/2
30 y+1/2,-x+1/2,-z+1/2
31 -y+1/2,x+1/2,-z+1/2
32 -y+1/2,-x+1/2,z+1/2
 
loop_
_atom_site_label
_atom_site_type_symbol
_atom_site_symmetry_multiplicity
_atom_site_Wyckoff_label
_atom_site_fract_x
_atom_site_fract_y
_atom_site_fract_z
_atom_site_occupancy
Ca1 Ca 2 a 0.00000 0.00000 0.00000 1.00000
P1 P 4 d 0.00000 0.50000 0.25000 1.00000
U1 U 4 e 0.00000 0.00000 0.20800 1.00000
