# CIF file 
data_findsym-output
_audit_creation_method FINDSYM

_chemical_name_mineral 'Jacutingaite'
_chemical_formula_sum 'Hg Pt2 Se3'

loop_
_publ_author_name
 'A. Vymazalov\\'{a}'
 'F. Laufek'
 'M. Dr\\'{a}bek'
 'A. R. Cabral'
 'J. Haloda'
 'T. Sidorinov\\'{a}'
 'B. Lehmann'
 'H. F. Galbiatti'
 'J. Drahokoupil'
_journal_name_full_name
;
 Canadian Mineralogist
;
_journal_volume 50
_journal_year 2012
_journal_page_first 431
_journal_page_last 440
_publ_Section_title
;
 Jacutingaite, Pt$_{2}$HgSe$_{3}$, A New Platinum-Group Mineral Species From the Cau\^{e} Iron-Ore Deposit, Itabira District, Minas Gerais, Brazil
;

# Found in A. Marrazzo, N. Marzari, and M. Gibertini, Emergent dual topology in the three-dimensional Kane-Mele Pt$_{2}$HgSe$_{3}$, Phys. Rev. Research 2, 012063 (2020)

_aflow_title 'Jacutingaite (Pt$_{2}$HgSe$_{3}$) Structure'
_aflow_proto 'AB2C3_hP12_164_d_ae_i'
_aflow_params 'a,c/a,z_{2},x_{4},z_{4}'
_aflow_params_values '7.3477,0.720701716183,0.3507,0.8196,0.2492'
_aflow_Strukturbericht 'None'
_aflow_Pearson 'hP12'

_symmetry_space_group_name_H-M "P -3 2/m 1"
_symmetry_Int_Tables_number 164
 
_cell_length_a    7.34770
_cell_length_b    7.34770
_cell_length_c    5.29550
_cell_angle_alpha 90.00000
_cell_angle_beta  90.00000
_cell_angle_gamma 120.00000
 
loop_
_space_group_symop_id
_space_group_symop_operation_xyz
1 x,y,z
2 -y,x-y,z
3 -x+y,-x,z
4 x-y,-y,-z
5 y,x,-z
6 -x,-x+y,-z
7 -x,-y,-z
8 y,-x+y,-z
9 x-y,x,-z
10 -x+y,y,z
11 -y,-x,z
12 x,x-y,z
 
loop_
_atom_site_label
_atom_site_type_symbol
_atom_site_symmetry_multiplicity
_atom_site_Wyckoff_label
_atom_site_fract_x
_atom_site_fract_y
_atom_site_fract_z
_atom_site_occupancy
Pt1 Pt 1 a 0.00000 0.00000 0.00000 1.00000
Hg1 Hg 2 d 0.33333 0.66667 0.35070 1.00000
Pt2 Pt 3 e 0.50000 0.00000 0.00000 1.00000
Se1 Se 6 i 0.81960 0.18040 0.24920 1.00000
