# CIF file 
data_findsym-output
_audit_creation_method FINDSYM

_chemical_name_mineral 'CFe2SiTh'
_chemical_formula_sum 'C Fe2 Si Th'

loop_
_publ_author_name
 'A. M. Witte'
 'W. Jeitschko'
_journal_name_full_name
;
 Journal of Solid State Chemistry
;
_journal_volume 112
_journal_year 1994
_journal_page_first 232
_journal_page_last 236
_publ_Section_title
;
 Carbides with Filled Re$_{3}$B-Type Structure
;

_aflow_title 'ThFe$_{2}$SiC Structure'
_aflow_proto 'AB2CD_oC20_63_b_f_c_c'
_aflow_params 'a,b/a,c/a,y_{2},y_{3},y_{4},z_{4}'
_aflow_params_values '3.863,2.79730779187,1.79911985503,0.7719,0.05275,0.66585,0.5611'
_aflow_Strukturbericht 'None'
_aflow_Pearson 'oC20'

_symmetry_space_group_name_H-M "C 2/m 2/c 21/m"
_symmetry_Int_Tables_number 63
 
_cell_length_a    3.86300
_cell_length_b    10.80600
_cell_length_c    6.95000
_cell_angle_alpha 90.00000
_cell_angle_beta  90.00000
_cell_angle_gamma 90.00000
 
loop_
_space_group_symop_id
_space_group_symop_operation_xyz
1 x,y,z
2 x,-y,-z
3 -x,y,-z+1/2
4 -x,-y,z+1/2
5 -x,-y,-z
6 -x,y,z
7 x,-y,z+1/2
8 x,y,-z+1/2
9 x+1/2,y+1/2,z
10 x+1/2,-y+1/2,-z
11 -x+1/2,y+1/2,-z+1/2
12 -x+1/2,-y+1/2,z+1/2
13 -x+1/2,-y+1/2,-z
14 -x+1/2,y+1/2,z
15 x+1/2,-y+1/2,z+1/2
16 x+1/2,y+1/2,-z+1/2
 
loop_
_atom_site_label
_atom_site_type_symbol
_atom_site_symmetry_multiplicity
_atom_site_Wyckoff_label
_atom_site_fract_x
_atom_site_fract_y
_atom_site_fract_z
_atom_site_occupancy
C1 C 4 b 0.00000 0.50000 0.00000 1.00000
Si1 Si 4 c 0.00000 0.77190 0.25000 1.00000
Th1 Th 4 c 0.00000 0.05275 0.25000 1.00000
Fe1 Fe 8 f 0.00000 0.66585 0.56110 1.00000