# CIF file 
data_findsym-output
_audit_creation_method FINDSYM

_chemical_name_mineral 'Copper (i) azide'
_chemical_formula_sum 'Cu N3'

loop_
_publ_author_name
 'H. Wilsdorf'
_journal_name_full_name
;
 Acta Cristallographica
;
_journal_volume 1
_journal_year 1948
_journal_page_first 115
_journal_page_last 118
_publ_Section_title
;
 Die Kristallstruktur des einwertigen Kupferazids, CuN$_{3}$
;

# Found in {\em Ab initio} study of electronic structure and optical properties of heavy-metal azides: TlN$_{3}$, AgN$_{3}$, and CuN$_{3}$, 2008

_aflow_title 'Copper (I) Azide (CuN$_{3}$) Structure'
_aflow_proto 'AB3_tI32_88_d_cf'
_aflow_params 'a,c/a,x_{3},y_{3},z_{3}'
_aflow_params_values '8.65001,0.646242027466,0.173,0.173,0.375'
_aflow_Strukturbericht 'None'
_aflow_Pearson 'tI32'

_symmetry_space_group_name_H-M "I 41/a (origin choice 2)"
_symmetry_Int_Tables_number 88
 
_cell_length_a    8.65001
_cell_length_b    8.65001
_cell_length_c    5.59000
_cell_angle_alpha 90.00000
_cell_angle_beta  90.00000
_cell_angle_gamma 90.00000
 
loop_
_space_group_symop_id
_space_group_symop_operation_xyz
1 x,y,z
2 -x,-y+1/2,z
3 -y+3/4,x+1/4,z+1/4
4 y+1/4,-x+1/4,z+1/4
5 -x,-y,-z
6 x,y+1/2,-z
7 y+1/4,-x+3/4,-z+3/4
8 -y+3/4,x+3/4,-z+3/4
9 x+1/2,y+1/2,z+1/2
10 -x+1/2,-y,z+1/2
11 -y+1/4,x+3/4,z+3/4
12 y+3/4,-x+3/4,z+3/4
13 -x+1/2,-y+1/2,-z+1/2
14 x+1/2,y,-z+1/2
15 y+3/4,-x+1/4,-z+1/4
16 -y+1/4,x+1/4,-z+1/4
 
loop_
_atom_site_label
_atom_site_type_symbol
_atom_site_symmetry_multiplicity
_atom_site_Wyckoff_label
_atom_site_fract_x
_atom_site_fract_y
_atom_site_fract_z
_atom_site_occupancy
N1 N 8 c 0.00000 0.00000 0.00000 1.00000
Cu1 Cu 8 d 0.00000 0.00000 0.50000 1.00000
N2 N 16 f 0.17300 0.17300 0.37500 1.00000