# AFLOW.org Repositories
# TaTi/AB3_mC32_8_4a_12a-001.AB params=13.8779590179,0.333333333333,0.666666666667,109.471220634,-0.0,0.5,0.5,0.75,0.375,0.9375,0.125,0.8125,0.875,0.1875,0.625,0.0625,0.75,0.375,0.875,0.6875,-0.0,-0.0,0.5,0.25,0.625,0.5625,0.75,0.875,0.25,0.125,0.375,0.4375,0.125,0.3125,0.25,0.625 SG=8 [ANRL doi: 10.1016/j.commatsci.2017.01.017 (part 1), doi: 10.1016/j.commatsci.2018.10.043 (part 2)]
data_TaTi
_pd_phase_name AB3_mC32_8_4a_12a-001.AB

_chemical_name_mineral 'TaTi3'
_chemical_formula_sum 'Ta Ti3'

loop_
_publ_author_name
 'C. Jiang'
 'C. Wolverton'
 'J. Sofo'
 'L.-Q. Chen'
 'Z.-K. Liu'
_journal_name_full_name
;
 Physical Review B
;
_journal_volume 69
_journal_year 2004
_journal_page_first 214202
_journal_page_last 214202
_publ_Section_title
;
 First-principles study of binary bcc alloys using special quasirandom structures
;

_aflow_title 'TaTi$_{3}$ (BCC SQS-16) Structure'
_aflow_proto 'AB3_mC32_8_4a_12a'
_aflow_params 'a,b/a,c/a,\beta,x_{1},z_{1},x_{2},z_{2},x_{3},z_{3},x_{4},z_{4},x_{5},z_{5},x_{6},z_{6},x_{7},z_{7},x_{8},z_{8},x_{9},z_{9},x_{10},z_{10},x_{11},z_{11},x_{12},z_{12},x_{13},z_{13},x_{14},z_{14},x_{15},z_{15},x_{16},z_{16}'
_aflow_params_values '13.8779590179,0.333333333333,0.666666666667,109.471220634,0.0,0.5,0.5,0.25,0.625,0.0625,0.875,0.1875,0.125,0.8125,0.375,0.9375,0.25,0.625,0.125,0.3125,0.0,0.0,0.5,0.75,0.375,0.4375,0.25,0.125,0.75,0.875,0.625,0.5625,0.875,0.6875,0.75,0.375'
_aflow_Strukturbericht 'None'
_aflow_Pearson 'mC32'

_cell_length_a  13.8779590179
_cell_length_b  4.6259863393
_cell_length_c  9.2519726786
_cell_angle_alpha  90.0000000000
_cell_angle_beta  109.4712206340
_cell_angle_gamma  90.0000000000
_symmetry_space_group_name_H-M  'Cm'
_symmetry_Int_Tables_Number  8
loop_
_symmetry_equiv_pos_site_id
_symmetry_equiv_pos_as_xyz
  1  x,y,z
  2  x,-y,z
  3  x+1/2,y+1/2,z
  4  x+1/2,-y+1/2,z
loop_
 _atom_site_label
 _atom_site_occupancy
 _atom_site_fract_x
 _atom_site_fract_y
 _atom_site_fract_z
 _atom_site_thermal_displace_type
 _atom_site_B_iso_or_equiv
 _atom_site_type_symbol
 _atom_site_symmetry_multiplicity
 _atom_site_Wyckoff_label
Ta1 1.0000000000 0.0000000000 0.0000000000 0.5000000000 Biso 1.0 Ta 2 a
Ta2 1.0000000000 0.5000000000 -0.0000000000 0.2500000000 Biso 1.0 Ta 2 a
Ta3 1.0000000000 0.6250000000 0.0000000000 0.0625000000 Biso 1.0 Ta 2 a
Ta4 1.0000000000 0.8750000000 0.0000000000 0.1875000000 Biso 1.0 Ta 2 a
Ti1 1.0000000000 0.1250000000 -0.0000000000 0.8125000000 Biso 1.0 Ti 2 a
Ti2 1.0000000000 0.3750000000 -0.0000000000 0.9375000000 Biso 1.0 Ti 2 a
Ti3 1.0000000000 0.2500000000 -0.0000000000 0.6250000000 Biso 1.0 Ti 2 a
Ti4 1.0000000000 0.1250000000 -0.0000000000 0.3125000000 Biso 1.0 Ti 2 a
Ti5 1.0000000000 0.0000000000 0.0000000000 0.0000000000 Biso 1.0 Ti 2 a
Ti6 1.0000000000 0.5000000000 -0.0000000000 0.7500000000 Biso 1.0 Ti 2 a
Ti7 1.0000000000 0.3750000000 -0.0000000000 0.4375000000 Biso 1.0 Ti 2 a
Ti8 1.0000000000 0.2500000000 -0.0000000000 0.1250000000 Biso 1.0 Ti 2 a
Ti9 1.0000000000 0.7500000000 0.0000000000 0.8750000000 Biso 1.0 Ti 2 a
Ti10 1.0000000000 0.6250000000 0.0000000000 0.5625000000 Biso 1.0 Ti 2 a
Ti11 1.0000000000 0.8750000000 0.0000000000 0.6875000000 Biso 1.0 Ti 2 a
Ti12 1.0000000000 0.7500000000 0.0000000000 0.3750000000 Biso 1.0 Ti 2 a