# CIF file 
data_findsym-output
_audit_creation_method FINDSYM

_chemical_name_mineral 'AlCl3'
_chemical_formula_sum 'Al Cl3'

loop_
_publ_author_name
 'W. E. Laschkarew'
_journal_name_full_name
;
 Zeitschrift fur Anorganische und Allgemeine Chemie
;
_journal_volume 193
_journal_year 1930
_journal_page_first 270
_journal_page_last 276
_publ_Section_title
;
 Zur Struktur AlCl$_{3}$
;

# Found in Strukturbericht Band II 1928-1932, 1937

_aflow_title '$D0_{13}$ (AlCl$_{3}$) ({\em{obsolete}}) Structure'
_aflow_proto 'AB3_hP4_164_b_ad'
_aflow_params 'a,c/a,z_{3}'
_aflow_params_values '3.475,2.45,0.33333'
_aflow_Strukturbericht '$D0_{13}$'
_aflow_Pearson 'hP4'

_symmetry_space_group_name_H-M "P -3 2/m 1"
_symmetry_Int_Tables_number 164
 
_cell_length_a    3.47500
_cell_length_b    3.47500
_cell_length_c    8.51375
_cell_angle_alpha 90.00000
_cell_angle_beta  90.00000
_cell_angle_gamma 120.00000
 
loop_
_space_group_symop_id
_space_group_symop_operation_xyz
1 x,y,z
2 -y,x-y,z
3 -x+y,-x,z
4 x-y,-y,-z
5 y,x,-z
6 -x,-x+y,-z
7 -x,-y,-z
8 y,-x+y,-z
9 x-y,x,-z
10 -x+y,y,z
11 -y,-x,z
12 x,x-y,z
 
loop_
_atom_site_label
_atom_site_type_symbol
_atom_site_symmetry_multiplicity
_atom_site_Wyckoff_label
_atom_site_fract_x
_atom_site_fract_y
_atom_site_fract_z
_atom_site_occupancy
Cl1 Cl 1 a 0.00000 0.00000 0.00000 1.00000
Al1 Al 1 b 0.00000 0.00000 0.50000 1.00000
Cl2 Cl 2 d 0.33333 0.66667 0.33333 1.00000
