# CIF file 
data_findsym-output
_audit_creation_method FINDSYM

_chemical_name_mineral 'AlCl3'
_chemical_formula_sum 'Al Cl3'

loop_
_publ_author_name
 'J. A. A. Ketelaar'
_journal_name_full_name
;
 Zeitschrift f{\"u}r Kristallographie - Crystalline Materials
;
_journal_volume 90
_journal_year 1935
_journal_page_first 237
_journal_page_last 255
_publ_Section_title
;
 Die Kristallstruktur der Aluminiumhalogenide II
;

# Found in Strukturbericht Band III 1933-1935, 1937

_aflow_title '$D0_{15}$ (AlCl$_{3}$) ({\em{obsolete}}) Structure'
_aflow_proto 'AB3_mC16_5_c_3c'
_aflow_params 'a,b/a,c/a,\beta,x_{1},y_{1},z_{1},x_{2},y_{2},z_{2},x_{3},y_{3},z_{3},x_{4},y_{4},z_{4}'
_aflow_params_values '5.91,1.73205076142,1.04286294416,108.64073,0.54333,0.27833,0.045,0.24,0.27778,0.22,0.74,0.44444,0.22,0.74,0.11111,0.22'
_aflow_Strukturbericht '$D0_{15}$'
_aflow_Pearson 'mC16'

_symmetry_space_group_name_H-M "C 1 2 1"
_symmetry_Int_Tables_number 5
 
_cell_length_a    5.91000
_cell_length_b    10.23642
_cell_length_c    6.16332
_cell_angle_alpha 90.00000
_cell_angle_beta  108.64073
_cell_angle_gamma 90.00000
 
loop_
_space_group_symop_id
_space_group_symop_operation_xyz
1 x,y,z
2 -x,y,-z
3 x+1/2,y+1/2,z
4 -x+1/2,y+1/2,-z
 
loop_
_atom_site_label
_atom_site_type_symbol
_atom_site_symmetry_multiplicity
_atom_site_Wyckoff_label
_atom_site_fract_x
_atom_site_fract_y
_atom_site_fract_z
_atom_site_occupancy
Al1 Al 4 c 0.54333 0.27833 0.04500 1.00000
Cl1 Cl 4 c 0.24000 0.27778 0.22000 1.00000
Cl2 Cl 4 c 0.74000 0.44444 0.22000 1.00000
Cl3 Cl 4 c 0.74000 0.11111 0.22000 1.00000
