# CIF file 
data_findsym-output
_audit_creation_method FINDSYM

_chemical_name_mineral 'BRe3'
_chemical_formula_sum 'B Re3'

loop_
_publ_author_name
 'B. Aronsson'
 'M. B\"{a}ckman'
 'S. Rundqvist'
_journal_name_full_name
;
 Acta Chemica Scandinavica
;
_journal_volume 14
_journal_year 1960
_journal_page_first 1001
_journal_page_last 1005
_publ_Section_title
;
 The Crystal Structure of Re$_{3}$B
;

_aflow_title 'Re$_{3}$B Structure'
_aflow_proto 'AB3_oC16_63_c_cf'
_aflow_params 'a,b/a,c/a,y_{1},y_{2},y_{3},z_{3}'
_aflow_params_values '2.89,3.22249134948,2.51141868512,0.744,0.4262,0.1345,0.062'
_aflow_Strukturbericht 'None'
_aflow_Pearson 'oC16'

_symmetry_space_group_name_H-M "C 2/m 2/c 21/m"
_symmetry_Int_Tables_number 63
 
_cell_length_a    2.89000
_cell_length_b    9.31300
_cell_length_c    7.25800
_cell_angle_alpha 90.00000
_cell_angle_beta  90.00000
_cell_angle_gamma 90.00000
 
loop_
_space_group_symop_id
_space_group_symop_operation_xyz
1 x,y,z
2 x,-y,-z
3 -x,y,-z+1/2
4 -x,-y,z+1/2
5 -x,-y,-z
6 -x,y,z
7 x,-y,z+1/2
8 x,y,-z+1/2
9 x+1/2,y+1/2,z
10 x+1/2,-y+1/2,-z
11 -x+1/2,y+1/2,-z+1/2
12 -x+1/2,-y+1/2,z+1/2
13 -x+1/2,-y+1/2,-z
14 -x+1/2,y+1/2,z
15 x+1/2,-y+1/2,z+1/2
16 x+1/2,y+1/2,-z+1/2
 
loop_
_atom_site_label
_atom_site_type_symbol
_atom_site_symmetry_multiplicity
_atom_site_Wyckoff_label
_atom_site_fract_x
_atom_site_fract_y
_atom_site_fract_z
_atom_site_occupancy
B1 B 4 c 0.00000 0.74400 0.25000 1.00000
Re1 Re 4 c 0.00000 0.42620 0.25000 1.00000
Re2 Re 8 f 0.00000 0.13450 0.06200 1.00000