# CIF file 
data_findsym-output
_audit_creation_method FINDSYM

_chemical_name_mineral 'Boric acid'
_chemical_formula_sum 'B H3 O3'

loop_
_publ_author_name
 'W. H. Zachariasen'
_journal_name_full_name
;
 Zeitschrift f{\"u}r Kristallographie - Crystalline Materials
;
_journal_volume 88
_journal_year 1934
_journal_page_first 150
_journal_page_last 161
_publ_Section_title
;
 The Crystal Lattice of Boric Acid, BO$_{3}$H$_{3}$
;

# Found in Strukturbericht Band III 1933-1935, 1937

_aflow_title 'Boric Acid (H$_{3}$BO$_{3}$, $G5_{1}$) Structure'
_aflow_proto 'AB3C3_aP28_2_2i_6i_6i'
_aflow_params 'a,b/a,c/a,\alpha,\beta,\gamma,x_{1},y_{1},z_{1},x_{2},y_{2},z_{2},x_{3},y_{3},z_{3},x_{4},y_{4},z_{4},x_{5},y_{5},z_{5},x_{6},y_{6},z_{6},x_{7},y_{7},z_{7},x_{8},y_{8},z_{8},x_{9},y_{9},z_{9},x_{10},y_{10},z_{10},x_{11},y_{11},z_{11},x_{12},y_{12},z_{12},x_{13},y_{13},z_{13},x_{14},y_{14},z_{14}'
_aflow_params_values '6.56,1.07317073171,1.07317073171,120.0,92.5,101.16667,0.25,0.653,0.431,0.25,0.31,0.764,0.25,0.319,0.431,0.25,0.319,0.097,0.25,-0.01,0.431,0.25,0.653,0.097,0.25,-0.01,0.764,0.25,0.65,0.764,0.25,0.431,0.319,0.25,0.764,0.319,0.25,0.764,0.653,0.25,0.21,0.542,0.25,0.21,0.875,0.25,0.542,0.875'
_aflow_Strukturbericht '$G5_{1}$'
_aflow_Pearson 'aP28'

_symmetry_space_group_name_H-M "P -1"
_symmetry_Int_Tables_number 2
 
_cell_length_a    6.56000
_cell_length_b    7.04000
_cell_length_c    7.04000
_cell_angle_alpha 120.00000
_cell_angle_beta  92.50000
_cell_angle_gamma 101.16667
 
loop_
_space_group_symop_id
_space_group_symop_operation_xyz
1 x,y,z
2 -x,-y,-z
 
loop_
_atom_site_label
_atom_site_type_symbol
_atom_site_symmetry_multiplicity
_atom_site_Wyckoff_label
_atom_site_fract_x
_atom_site_fract_y
_atom_site_fract_z
_atom_site_occupancy
B1 B 2 i 0.25000 0.65300 0.43100 1.00000
B2 B 2 i 0.25000 0.31000 0.76400 1.00000
H1 H 2 i 0.25000 0.31900 0.43100 1.00000
H2 H 2 i 0.25000 0.31900 0.09700 1.00000
H3 H 2 i 0.25000 -0.01000 0.43100 1.00000
H4 H 2 i 0.25000 0.65300 0.09700 1.00000
H5 H 2 i 0.25000 -0.01000 0.76400 1.00000
H6 H 2 i 0.25000 0.65000 0.76400 1.00000
O1 O 2 i 0.25000 0.43100 0.31900 1.00000
O2 O 2 i 0.25000 0.76400 0.31900 1.00000
O3 O 2 i 0.25000 0.76400 0.65300 1.00000
O4 O 2 i 0.25000 0.21000 0.54200 1.00000
O5 O 2 i 0.25000 0.21000 0.87500 1.00000
O6 O 2 i 0.25000 0.54200 0.87500 1.00000