# CIF file 
data_findsym-output
_audit_creation_method FINDSYM

_chemical_name_mineral 'Enstatite'
_chemical_formula_sum 'Mg O3 Si'

loop_
_publ_author_name
 'B. E. Warren'
 'D. I. Modell'
_journal_name_full_name
;
 Zeitschrift f{\"u}r Kristallographie - Crystalline Materials
;
_journal_volume 75
_journal_year 1930
_journal_page_first 1
_journal_page_last 14
_publ_Section_title
;
 The Structure of Enstatite MgSiO$_{3}$
;

_aflow_title 'Enstatite (MgSiO$_{3}$, $S4_{3}$) Structure'
_aflow_proto 'AB3C_oP80_61_2c_6c_2c'
_aflow_params 'a,b/a,c/a,x_{1},y_{1},z_{1},x_{2},y_{2},z_{2},x_{3},y_{3},z_{3},x_{4},y_{4},z_{4},x_{5},y_{5},z_{5},x_{6},y_{6},z_{6},x_{7},y_{7},z_{7},x_{8},y_{8},z_{8},x_{9},y_{9},z_{9},x_{10},y_{10},z_{10}'
_aflow_params_values '18.2,0.486813186813,0.285714285714,0.13,0.33,0.37,0.13,0.96,0.37,0.06,0.14,0.2,0.06,0.5,0.2,0.05,0.75,0.05,0.19,0.35,0.06,0.19,0.01,0.05,0.2,0.75,0.3,0.03,0.65,0.29,0.22,0.85,0.04'
_aflow_Strukturbericht '$S4_{3}$'
_aflow_Pearson 'oP80'

_symmetry_space_group_name_H-M "P 21/b 21/c 21/a"
_symmetry_Int_Tables_number 61
 
_cell_length_a    18.20000
_cell_length_b    8.86000
_cell_length_c    5.20000
_cell_angle_alpha 90.00000
_cell_angle_beta  90.00000
_cell_angle_gamma 90.00000
 
loop_
_space_group_symop_id
_space_group_symop_operation_xyz
1 x,y,z
2 x+1/2,-y+1/2,-z
3 -x,y+1/2,-z+1/2
4 -x+1/2,-y,z+1/2
5 -x,-y,-z
6 -x+1/2,y+1/2,z
7 x,-y+1/2,z+1/2
8 x+1/2,y,-z+1/2
 
loop_
_atom_site_label
_atom_site_type_symbol
_atom_site_symmetry_multiplicity
_atom_site_Wyckoff_label
_atom_site_fract_x
_atom_site_fract_y
_atom_site_fract_z
_atom_site_occupancy
Mg1 Mg 8 c 0.13000 0.33000 0.37000 1.00000
Mg2 Mg 8 c 0.13000 0.96000 0.37000 1.00000
O1 O 8 c 0.06000 0.14000 0.20000 1.00000
O2 O 8 c 0.06000 0.50000 0.20000 1.00000
O3 O 8 c 0.05000 0.75000 0.05000 1.00000
O4 O 8 c 0.19000 0.35000 0.06000 1.00000
O5 O 8 c 0.19000 0.01000 0.05000 1.00000
O6 O 8 c 0.20000 0.75000 0.30000 1.00000
Si1 Si 8 c 0.03000 0.65000 0.29000 1.00000
Si2 Si 8 c 0.22000 0.85000 0.04000 1.00000