# CIF file 
data_findsym-output
_audit_creation_method FINDSYM

_chemical_name_mineral 'CrK3O8'
_chemical_formula_sum 'Cr K3 O8'

loop_
_publ_author_name
 'R. Stomberg'
_journal_name_full_name
;
 Acta Chemica Scandinavica
;
_journal_volume 17
_journal_year 1963
_journal_page_first 1563
_journal_page_last 1566
_publ_Section_title
;
 Least-Squares Refinement of the Crystal Structure of Potassium Peroxochromate
;

_aflow_title 'K$_{3}$CrO$_{8}$ Structure'
_aflow_proto 'AB3C8_tI24_121_a_bd_2i'
_aflow_params 'a,c/a,x_{4},z_{4},x_{5},z_{5}'
_aflow_params_values '6.703,1.13859465911,0.1355,0.1788,0.2079,0.0082'
_aflow_Strukturbericht 'None'
_aflow_Pearson 'tI24'

_symmetry_space_group_name_H-M "I -4 2 m"
_symmetry_Int_Tables_number 121
 
_cell_length_a    6.70300
_cell_length_b    6.70300
_cell_length_c    7.63200
_cell_angle_alpha 90.00000
_cell_angle_beta  90.00000
_cell_angle_gamma 90.00000
 
loop_
_space_group_symop_id
_space_group_symop_operation_xyz
1 x,y,z
2 x,-y,-z
3 -x,y,-z
4 -x,-y,z
5 y,x,z
6 y,-x,-z
7 -y,x,-z
8 -y,-x,z
9 x+1/2,y+1/2,z+1/2
10 x+1/2,-y+1/2,-z+1/2
11 -x+1/2,y+1/2,-z+1/2
12 -x+1/2,-y+1/2,z+1/2
13 y+1/2,x+1/2,z+1/2
14 y+1/2,-x+1/2,-z+1/2
15 -y+1/2,x+1/2,-z+1/2
16 -y+1/2,-x+1/2,z+1/2
 
loop_
_atom_site_label
_atom_site_type_symbol
_atom_site_symmetry_multiplicity
_atom_site_Wyckoff_label
_atom_site_fract_x
_atom_site_fract_y
_atom_site_fract_z
_atom_site_occupancy
Cr1 Cr 2 a 0.00000 0.00000 0.00000 1.00000
K1 K 2 b 0.00000 0.00000 0.50000 1.00000
K2 K 4 d 0.00000 0.50000 0.25000 1.00000
O1 O 8 i 0.13550 0.13550 0.17880 1.00000
O2 O 8 i 0.20790 0.20790 0.00820 1.00000