# CIF file 
data_findsym-output
_audit_creation_method FINDSYM

_chemical_name_mineral 'CuLa3S7Si'
_chemical_formula_sum 'Cu La3 S7 Si'

loop_
_publ_author_name
 'G. Collin'
 'P. Laruelle'
_journal_name_full_name
;
 Bulletin de la Societ{\'e} fran{\c{c}}aise de Mineralogie et de Crystallographie
;
_journal_volume 94
_journal_year 1971
_journal_page_first 175
_journal_page_last 176
_publ_Section_title
;
 Structure de La$_{6}$Cu$_{2}$Si$_{2}$S$_{14}$
;

# Found in Crystal structure and magnetic properties of Ce$_{3}$CuSnSe$_{7}$, 2005

_aflow_title 'La$_{3}$CuSiS$_{7}$ Structure'
_aflow_proto 'AB3C7D_hP24_173_a_c_b2c_b'
_aflow_params 'a,c/a,z_{1},z_{2},z_{3},x_{4},y_{4},z_{4},x_{5},y_{5},z_{5},x_{6},y_{6},z_{6}'
_aflow_params_values '10.31,0.561978661494,0.278,0.024,0.664,0.123,0.357,0.25,0.085,0.25,0.761,0.41,0.526,0.523'
_aflow_Strukturbericht 'None'
_aflow_Pearson 'hP24'

_symmetry_space_group_name_H-M "P 63"
_symmetry_Int_Tables_number 173
 
_cell_length_a    10.31000
_cell_length_b    10.31000
_cell_length_c    5.79400
_cell_angle_alpha 90.00000
_cell_angle_beta  90.00000
_cell_angle_gamma 120.00000
 
loop_
_space_group_symop_id
_space_group_symop_operation_xyz
1 x,y,z
2 x-y,x,z+1/2
3 -y,x-y,z
4 -x,-y,z+1/2
5 -x+y,-x,z
6 y,-x+y,z+1/2
 
loop_
_atom_site_label
_atom_site_type_symbol
_atom_site_symmetry_multiplicity
_atom_site_Wyckoff_label
_atom_site_fract_x
_atom_site_fract_y
_atom_site_fract_z
_atom_site_occupancy
Cu1 Cu 2 a 0.00000 0.00000 0.27800 1.00000
S1 S 2 b 0.33333 0.66667 0.02400 1.00000
Si1 Si 2 b 0.33333 0.66667 0.66400 1.00000
La1 La 6 c 0.12300 0.35700 0.25000 1.00000
S2 S 6 c 0.08500 0.25000 0.76100 1.00000
S3 S 6 c 0.41000 0.52600 0.52300 1.00000