# CIF file 
data_findsym-output
_audit_creation_method FINDSYM

_chemical_name_mineral 'Chalcocyanite'
_chemical_formula_sum 'Cu O4 S'

loop_
_publ_author_name
 'M. Wildner'
 'G. Giester'
_journal_name_full_name
;
 Mineralogy and Petrology
;
_journal_volume 39
_journal_year 1988
_journal_page_first 201
_journal_page_last 209
_publ_Section_title
;
 Crystal structure refinements of synthetic chalcocyanite (CuSO$_{4}$) and zincosite (ZnSO$_{4}$)
;

_aflow_title 'Chalcocyanite (CuSO$_{4}$) Structure'
_aflow_proto 'AB4C_oP24_62_a_2cd_c'
_aflow_params 'a,b/a,c/a,x_{2},z_{2},x_{3},z_{3},x_{4},z_{4},x_{5},y_{5},z_{5}'
_aflow_params_values '8.409,0.797835652277,0.574741348555,0.1293,0.7353,0.3646,0.4385,0.18363,0.44979,0.1328,0.0674,0.3083'
_aflow_Strukturbericht 'None'
_aflow_Pearson 'oP24'

_symmetry_space_group_name_H-M "P 21/n 21/m 21/a"
_symmetry_Int_Tables_number 62
 
_cell_length_a    8.40900
_cell_length_b    6.70900
_cell_length_c    4.83300
_cell_angle_alpha 90.00000
_cell_angle_beta  90.00000
_cell_angle_gamma 90.00000
 
loop_
_space_group_symop_id
_space_group_symop_operation_xyz
1 x,y,z
2 x+1/2,-y+1/2,-z+1/2
3 -x,y+1/2,-z
4 -x+1/2,-y,z+1/2
5 -x,-y,-z
6 -x+1/2,y+1/2,z+1/2
7 x,-y+1/2,z
8 x+1/2,y,-z+1/2
 
loop_
_atom_site_label
_atom_site_type_symbol
_atom_site_symmetry_multiplicity
_atom_site_Wyckoff_label
_atom_site_fract_x
_atom_site_fract_y
_atom_site_fract_z
_atom_site_occupancy
Cu1 Cu 4 a 0.00000 0.00000 0.00000 1.00000
O1 O 4 c 0.12930 0.25000 0.73530 1.00000
O2 O 4 c 0.36460 0.25000 0.43850 1.00000
S1 S 4 c 0.18363 0.25000 0.44979 1.00000
O3 O 8 d 0.13280 0.06740 0.30830 1.00000