# CIF file 
data_findsym-output
_audit_creation_method FINDSYM

_chemical_name_mineral 'AlF4Tl'
_chemical_formula_sum 'Al F4 Tl'

loop_
_publ_author_name
 'C. Brosset'
_journal_name_full_name
;
 Zeitschrift fur Anorganische und Allgemeine Chemie
;
_journal_volume 235
_journal_year 1937
_journal_page_first 139
_journal_page_last 147
_publ_Section_title
;
 Herstellung und Kristallbau der Verbindungen TlAlF$_{4}$ und Tl$_{2}$AlF$_{5}$
;

# Found in A Structural Classification of Fluoaluminates, 1950

_aflow_title 'TlAlF$_{4}$ ($H0_8$) Structure'
_aflow_proto 'AB4C_tP6_123_d_eh_a'
_aflow_params 'a,c/a,z_{4}'
_aflow_params_values '3.61,1.76454293629,0.215'
_aflow_Strukturbericht '$H0_{8}$'
_aflow_Pearson 'tP6'

_symmetry_space_group_name_H-M "P 4/m 2/m 2/m"
_symmetry_Int_Tables_number 123
 
_cell_length_a    3.61000
_cell_length_b    3.61000
_cell_length_c    6.37000
_cell_angle_alpha 90.00000
_cell_angle_beta  90.00000
_cell_angle_gamma 90.00000
 
loop_
_space_group_symop_id
_space_group_symop_operation_xyz
1 x,y,z
2 x,-y,-z
3 -x,y,-z
4 -x,-y,z
5 -y,-x,-z
6 -y,x,z
7 y,-x,z
8 y,x,-z
9 -x,-y,-z
10 -x,y,z
11 x,-y,z
12 x,y,-z
13 y,x,z
14 y,-x,-z
15 -y,x,-z
16 -y,-x,z
 
loop_
_atom_site_label
_atom_site_type_symbol
_atom_site_symmetry_multiplicity
_atom_site_Wyckoff_label
_atom_site_fract_x
_atom_site_fract_y
_atom_site_fract_z
_atom_site_occupancy
Tl1 Tl 1 a 0.00000 0.00000 0.00000 1.00000
Al1 Al 1 d 0.50000 0.50000 0.50000 1.00000
F1 F 2 e 0.00000 0.50000 0.50000 1.00000
F2 F 2 h 0.50000 0.50000 0.21500 1.00000