# CIF file 
data_findsym-output
_audit_creation_method FINDSYM

_chemical_name_mineral 'Berthierite'
_chemical_formula_sum 'Fe S4 Sb2'

loop_
_publ_author_name
 'M. J. Buerger'
 'T. Hahn'
_journal_year 1953
_publ_Section_title
;
 The Crystal Structure of Berthierite, FeSb$_{2}$S$_{4}$
;

_aflow_title 'Berthierite (FeSb$_{2}$S$_{4}$, $E3_{3}$) Structure'
_aflow_proto 'AB4C2_oP28_62_c_4c_2c'
_aflow_params 'a,b/a,c/a,x_{1},z_{1},x_{2},z_{2},x_{3},z_{3},x_{4},z_{4},x_{5},z_{5},x_{6},z_{6},x_{7},z_{7}'
_aflow_params_values '11.44,0.328671328671,1.23426573427,0.184,0.334,0.695,0.728,0.076,0.184,0.274,0.492,-0.049,0.595,0.355,0.062,0.537,0.614'
_aflow_Strukturbericht '$E3_{3}$'
_aflow_Pearson 'oP28'

_symmetry_space_group_name_H-M "P 21/n 21/m 21/a"
_symmetry_Int_Tables_number 62
 
_cell_length_a    11.44000
_cell_length_b    3.76000
_cell_length_c    14.12000
_cell_angle_alpha 90.00000
_cell_angle_beta  90.00000
_cell_angle_gamma 90.00000
 
loop_
_space_group_symop_id
_space_group_symop_operation_xyz
1 x,y,z
2 x+1/2,-y+1/2,-z+1/2
3 -x,y+1/2,-z
4 -x+1/2,-y,z+1/2
5 -x,-y,-z
6 -x+1/2,y+1/2,z+1/2
7 x,-y+1/2,z
8 x+1/2,y,-z+1/2
 
loop_
_atom_site_label
_atom_site_type_symbol
_atom_site_symmetry_multiplicity
_atom_site_Wyckoff_label
_atom_site_fract_x
_atom_site_fract_y
_atom_site_fract_z
_atom_site_occupancy
Fe1 Fe 4 c 0.18400 0.25000 0.33400 1.00000
S1 S 4 c 0.69500 0.25000 0.72800 1.00000
S2 S 4 c 0.07600 0.25000 0.18400 1.00000
S3 S 4 c 0.27400 0.25000 0.49200 1.00000
S4 S 4 c -0.04900 0.25000 0.59500 1.00000
Sb1 Sb 4 c 0.35500 0.25000 0.06200 1.00000
Sb2 Sb 4 c 0.53700 0.25000 0.61400 1.00000