# CIF file 
data_findsym-output
_audit_creation_method FINDSYM

_chemical_name_mineral 'CuS4Ti2'
_chemical_formula_sum 'Cu S4 Ti2'

loop_
_publ_author_name
 'N. Soheilnia'
 'K. M. Kleinke'
 'E. Dashjav'
 'H. L. Cuthbert'
 'J. E. Greedan'
 'H. Kleinke'
_journal_name_full_name
;
 Inorganic Chemistry
;
_journal_volume 43
_journal_year 2004
_journal_page_first 6473
_journal_page_last 6478
_publ_Section_title
;
 Crystal Structure and Physical Properties of a New CuTi$_{2}$S$_{4}$ Modification in Comparison to the Thiospinel
;

_aflow_title 'Rhombohedral CuTi$_{2}$S$_{4}$ Structure'
_aflow_proto 'AB4C2_hR28_166_2c_2c2h_abh'
_aflow_params 'a,c/a,x_{3},x_{4},x_{5},x_{6},x_{7},z_{7},x_{8},z_{8},x_{9},z_{9}'
_aflow_params_values '7.0242,4.95914125452,0.18759,0.35449,0.1232,0.28892,0.19936,0.7283,0.61457,0.13398,1.08544,-0.42793'
_aflow_Strukturbericht 'None'
_aflow_Pearson 'hR28'

_symmetry_space_group_name_H-M "R -3 2/m (hexagonal axes)"
_symmetry_Int_Tables_number 166
 
_cell_length_a    7.02420
_cell_length_b    7.02420
_cell_length_c    34.83400
_cell_angle_alpha 90.00000
_cell_angle_beta  90.00000
_cell_angle_gamma 120.00000
 
loop_
_space_group_symop_id
_space_group_symop_operation_xyz
1 x,y,z
2 -y,x-y,z
3 -x+y,-x,z
4 y,x,-z
5 -x,-x+y,-z
6 x-y,-y,-z
7 -x,-y,-z
8 y,-x+y,-z
9 x-y,x,-z
10 -y,-x,z
11 x,x-y,z
12 -x+y,y,z
13 x+1/3,y+2/3,z+2/3
14 -y+1/3,x-y+2/3,z+2/3
15 -x+y+1/3,-x+2/3,z+2/3
16 y+1/3,x+2/3,-z+2/3
17 -x+1/3,-x+y+2/3,-z+2/3
18 x-y+1/3,-y+2/3,-z+2/3
19 -x+1/3,-y+2/3,-z+2/3
20 y+1/3,-x+y+2/3,-z+2/3
21 x-y+1/3,x+2/3,-z+2/3
22 -y+1/3,-x+2/3,z+2/3
23 x+1/3,x-y+2/3,z+2/3
24 -x+y+1/3,y+2/3,z+2/3
25 x+2/3,y+1/3,z+1/3
26 -y+2/3,x-y+1/3,z+1/3
27 -x+y+2/3,-x+1/3,z+1/3
28 y+2/3,x+1/3,-z+1/3
29 -x+2/3,-x+y+1/3,-z+1/3
30 x-y+2/3,-y+1/3,-z+1/3
31 -x+2/3,-y+1/3,-z+1/3
32 y+2/3,-x+y+1/3,-z+1/3
33 x-y+2/3,x+1/3,-z+1/3
34 -y+2/3,-x+1/3,z+1/3
35 x+2/3,x-y+1/3,z+1/3
36 -x+y+2/3,y+1/3,z+1/3
 
loop_
_atom_site_label
_atom_site_type_symbol
_atom_site_symmetry_multiplicity
_atom_site_Wyckoff_label
_atom_site_fract_x
_atom_site_fract_y
_atom_site_fract_z
_atom_site_occupancy
Ti1 Ti 3 a 0.00000 0.00000 0.00000 1.00000
Ti2 Ti 3 b 0.00000 0.00000 0.50000 1.00000
Cu1 Cu 6 c 0.00000 0.00000 0.18759 1.00000
Cu2 Cu 6 c 0.00000 0.00000 0.35449 1.00000
S1 S 6 c 0.00000 0.00000 0.12320 1.00000
S2 S 6 c 0.00000 0.00000 0.28892 1.00000
S3 S 18 h 0.15702 0.84298 0.04234 1.00000
S4 S 18 h 0.49353 0.50647 0.12104 1.00000
Ti3 Ti 18 h 0.83779 0.16221 0.24765 1.00000