# CIF file 
data_findsym-output
_audit_creation_method FINDSYM

_chemical_name_mineral 'Scheelite'
_chemical_formula_sum 'Ca O4 W'

loop_
_publ_author_name
 'R. M. Hazen'
 'L. W. Finger'
 'J. W. E. Mariathasan'
_journal_name_full_name
;
 Journal of Physics and Chemistry of Solids
;
_journal_volume 46
_journal_year 1985
_journal_page_first 253
_journal_page_last 263
_publ_Section_title
;
 High-pressure crystal chemistry of scheelite-type tungstates and molybdates
;

# Found in Electronic band structures of the scheelite materials CaMoO$_{4}$, CaWO$_{4}$, PbMoO$_{4}$, and PbWO$_{4}$, 1988

_aflow_title 'Scheelite (CaWO$_{4}$, $H0_{4}$) Structure'
_aflow_proto 'AB4C_tI24_88_b_f_a'
_aflow_params 'a,c/a,x_{3},y_{3},z_{3}'
_aflow_params_values '5.2429,2.16935283908,0.1488,0.0038,0.2159'
_aflow_Strukturbericht '$H0_{4}$'
_aflow_Pearson 'tI24'

_symmetry_space_group_name_H-M "I 41/a (origin choice 2)"
_symmetry_Int_Tables_number 88
 
_cell_length_a    5.24290
_cell_length_b    5.24290
_cell_length_c    11.37370
_cell_angle_alpha 90.00000
_cell_angle_beta  90.00000
_cell_angle_gamma 90.00000
 
loop_
_space_group_symop_id
_space_group_symop_operation_xyz
1 x,y,z
2 -x,-y+1/2,z
3 -y+3/4,x+1/4,z+1/4
4 y+1/4,-x+1/4,z+1/4
5 -x,-y,-z
6 x,y+1/2,-z
7 y+1/4,-x+3/4,-z+3/4
8 -y+3/4,x+3/4,-z+3/4
9 x+1/2,y+1/2,z+1/2
10 -x+1/2,-y,z+1/2
11 -y+1/4,x+3/4,z+3/4
12 y+3/4,-x+3/4,z+3/4
13 -x+1/2,-y+1/2,-z+1/2
14 x+1/2,y,-z+1/2
15 y+3/4,-x+1/4,-z+1/4
16 -y+1/4,x+1/4,-z+1/4
 
loop_
_atom_site_label
_atom_site_type_symbol
_atom_site_symmetry_multiplicity
_atom_site_Wyckoff_label
_atom_site_fract_x
_atom_site_fract_y
_atom_site_fract_z
_atom_site_occupancy
W1 W 4 a 0.00000 0.25000 0.12500 1.00000
Ca1 Ca 4 b 0.00000 0.25000 0.62500 1.00000
O1 O 16 f 0.14880 0.00380 0.21590 1.00000