# CIF file 
data_findsym-output
_audit_creation_method FINDSYM

_chemical_name_mineral 'NiSe5Ta2'
_chemical_formula_sum 'Ni Se5 Ta2'

loop_
_publ_author_name
 'S. A. Sunshine'
 'J. A. Ibers'
_journal_name_full_name
;
 Inorganic Chemistry
;
_journal_volume 24
_journal_year 1985
_journal_page_first 3611
_journal_page_last 3614
_publ_Section_title
;
 Structure and physical properties of the new layered ternary chalcogenides tantalum nickel sulfide (Ta$_{2}$NiS$_{5}$) and tantalum nickel selenide (Ta$_{2}$NiSe$_{5}$)
;

# Found in Physical and structural properties of the new layered compounds Ta$_{2}$NiS$_{5}$ and Ta$_{2}$NiSe$_{5}$, 1986

_aflow_title 'Ta$_{2}$NiSe$_{5}$ Structure'
_aflow_proto 'AB5C2_mC32_15_e_e2f_f'
_aflow_params 'a,b/a,c/a,\beta,y_{1},y_{2},x_{3},y_{3},z_{3},x_{4},y_{4},z_{4},x_{5},y_{5},z_{5}'
_aflow_params_values '3.496,3.66962242563,4.47397025172,90.53,0.70113,0.32714,0.5053,0.08039,0.13798,-0.00513,0.14565,-0.04913,-0.00793,0.22135,0.11044'
_aflow_Strukturbericht 'None'
_aflow_Pearson 'mC32'

_symmetry_space_group_name_H-M "C 1 2/c 1"
_symmetry_Int_Tables_number 15
 
_cell_length_a    3.49600
_cell_length_b    12.82900
_cell_length_c    15.64100
_cell_angle_alpha 90.00000
_cell_angle_beta  90.53000
_cell_angle_gamma 90.00000
 
loop_
_space_group_symop_id
_space_group_symop_operation_xyz
1 x,y,z
2 -x,y,-z+1/2
3 -x,-y,-z
4 x,-y,z+1/2
5 x+1/2,y+1/2,z
6 -x+1/2,y+1/2,-z+1/2
7 -x+1/2,-y+1/2,-z
8 x+1/2,-y+1/2,z+1/2
 
loop_
_atom_site_label
_atom_site_type_symbol
_atom_site_symmetry_multiplicity
_atom_site_Wyckoff_label
_atom_site_fract_x
_atom_site_fract_y
_atom_site_fract_z
_atom_site_occupancy
Ni1 Ni 4 e 0.00000 0.70113 0.25000 1.00000
Se1 Se 4 e 0.00000 0.32714 0.25000 1.00000
Se2 Se 8 f 0.50530 0.08039 0.13798 1.00000
Se3 Se 8 f -0.00513 0.14565 -0.04913 1.00000
Ta1 Ta 8 f -0.00793 0.22135 0.11044 1.00000