# CIF file 
data_findsym-output
_audit_creation_method FINDSYM

_chemical_name_mineral 'Mercury (ii) azide'
_chemical_formula_sum 'Hg N6'

loop_
_publ_author_name
 'U. M\"{u}ller'
_journal_name_full_name
;
 Zeitschrift fur Anorganische und Allgemeine Chemie
;
_journal_volume 399
_journal_year 1973
_journal_page_first 183
_journal_page_last 192
_publ_Section_title
;
 Die Kristallstruktur von $\alpha$-Quecksilber(II)-Azid
;

# Found in Binary Alloy Phase Diagrams, {Hf-Re to Zn-Zr}, 1990

_aflow_title 'Mercury (II) Azide [Hg(N$_{3}$)$_{2}$] Structure'
_aflow_proto 'AB6_oP28_29_a_6a'
_aflow_params 'a,b/a,c/a,x_{1},y_{1},z_{1},x_{2},y_{2},z_{2},x_{3},y_{3},z_{3},x_{4},y_{4},z_{4},x_{5},y_{5},z_{5},x_{6},y_{6},z_{6},x_{7},y_{7},z_{7}'
_aflow_params_values '10.632,0.589164785553,0.59471407073,0.03183,0.23877,0.25,0.082,-0.043,0.106,0.188,0.893,0.121,0.284,0.82,0.112,0.962,0.529,0.39,0.883,0.609,0.28,0.807,0.7,0.172'
_aflow_Strukturbericht 'None'
_aflow_Pearson 'oP28'

_symmetry_space_group_name_H-M "P c a 21"
_symmetry_Int_Tables_number 29
 
_cell_length_a    10.63200
_cell_length_b    6.26400
_cell_length_c    6.32300
_cell_angle_alpha 90.00000
_cell_angle_beta  90.00000
_cell_angle_gamma 90.00000
 
loop_
_space_group_symop_id
_space_group_symop_operation_xyz
1 x,y,z
2 -x,-y,z+1/2
3 -x+1/2,y,z+1/2
4 x+1/2,-y,z
 
loop_
_atom_site_label
_atom_site_type_symbol
_atom_site_symmetry_multiplicity
_atom_site_Wyckoff_label
_atom_site_fract_x
_atom_site_fract_y
_atom_site_fract_z
_atom_site_occupancy
Hg1 Hg 4 a 0.03183 0.23877 0.25000 1.00000
N1 N 4 a 0.08200 -0.04300 0.10600 1.00000
N2 N 4 a 0.18800 0.89300 0.12100 1.00000
N3 N 4 a 0.28400 0.82000 0.11200 1.00000
N4 N 4 a 0.96200 0.52900 0.39000 1.00000
N5 N 4 a 0.88300 0.60900 0.28000 1.00000
N6 N 4 a 0.80700 0.70000 0.17200 1.00000
