# CIF file 
data_findsym-output
_audit_creation_method FINDSYM

_chemical_name_mineral 'CaCu6O18P4Rb2'
_chemical_formula_sum 'Ca Cu6 O18 P4 Rb2'

loop_
_publ_author_name
 'S. M. Aksenov'
 'E. Y. Borovikova'
 'V. S. Mironov'
 'N. A. Yamnova'
 'A. S. Volkov'
 'D. A. Ksenofontov'
 'O. A. Gurbanova'
 'O. V. Dimitrova'
 'D. V. Deyneko'
 'E. A. Zvereva'
 'O. V. Maximova'
 'S. V. Krivovichev'
 'P. C. Burns'
 'A. N. Vasiliev'
_journal_name_full_name
;
 Acta Crystallographica Section B: Structural Science
;
_journal_volume 75
_journal_year 2019
_journal_page_first 903
_journal_page_last 913
_publ_Section_title
;
 Rb$_{2}$CaCu$_{6}$(PO$_{4}$)$_{4}$O$_{2}$, a novel oxophosphate with a shchurovskyite-type topology: synthesis, structure, magnetic properties and crystal chemistry of rubidium copper phosphates
;

_aflow_title 'Rb$_{2}$CaCu$_{6}$(PO$_{4}$)$_{4}$O$_{2}$ Structure'
_aflow_proto 'AB6C18D4E2_mC62_5_a_2b2c_9c_2c_c'
_aflow_params 'a,b/a,c/a,\beta,y_{1},y_{2},y_{3},x_{4},y_{4},z_{4},x_{5},y_{5},z_{5},x_{6},y_{6},z_{6},x_{7},y_{7},z_{7},x_{8},y_{8},z_{8},x_{9},y_{9},z_{9},x_{10},y_{10},z_{10},x_{11},y_{11},z_{11},x_{12},y_{12},z_{12},x_{13},y_{13},z_{13},x_{14},y_{14},z_{14},x_{15},y_{15},z_{15},x_{16},y_{16},z_{16},x_{17},y_{17},z_{17}'
_aflow_params_values '16.8913,0.33393522109,0.494876060457,93.919,0.67531,-0.07889,0.413,0.32143,-0.25821,0.47267,0.08396,0.18216,0.22561,0.33645,-0.2696,0.2451,0.5762,0.1756,0.4677,0.07301,0.1655,0.4508,0.47637,-0.1144,0.2054,0.4428,-0.5435,0.1571,0.3822,-0.2162,-0.0248,0.71142,0.3504,0.4381,0.67462,-0.0515,0.3216,0.61381,0.3236,0.1953,0.64484,0.2009,0.35178,0.4101,-0.29307,0.14827,0.29009,0.20623,0.15752'
_aflow_Strukturbericht 'None'
_aflow_Pearson 'mC62'

_symmetry_space_group_name_H-M "C 1 2 1"
_symmetry_Int_Tables_number 5
 
_cell_length_a    16.89130
_cell_length_b    5.64060
_cell_length_c    8.35910
_cell_angle_alpha 90.00000
_cell_angle_beta  93.91900
_cell_angle_gamma 90.00000
 
loop_
_space_group_symop_id
_space_group_symop_operation_xyz
1 x,y,z
2 -x,y,-z
3 x+1/2,y+1/2,z
4 -x+1/2,y+1/2,-z
 
loop_
_atom_site_label
_atom_site_type_symbol
_atom_site_symmetry_multiplicity
_atom_site_Wyckoff_label
_atom_site_fract_x
_atom_site_fract_y
_atom_site_fract_z
_atom_site_occupancy
Ca1 Ca 2 a 0.00000 0.67531 0.00000 1.00000
Cu1 Cu 2 b 0.00000 -0.07889 0.50000 1.00000
Cu2 Cu 2 b 0.00000 0.41300 0.50000 1.00000
Cu3 Cu 4 c 0.32143 -0.25821 0.47267 1.00000
Cu4 Cu 4 c 0.08396 0.18216 0.22561 1.00000
O1 O 4 c 0.33645 -0.26960 0.24510 1.00000
O2 O 4 c 0.57620 0.17560 0.46770 1.00000
O3 O 4 c 0.07301 0.16550 0.45080 1.00000
O4 O 4 c 0.47637 -0.11440 0.20540 1.00000
O5 O 4 c 0.44280 -0.54350 0.15710 1.00000
O6 O 4 c 0.38220 -0.21620 -0.02480 1.00000
O7 O 4 c 0.71142 0.35040 0.43810 1.00000
O8 O 4 c 0.67462 -0.05150 0.32160 1.00000
O9 O 4 c 0.61381 0.32360 0.19530 1.00000
P1 P 4 c 0.64484 0.20090 0.35178 1.00000
P2 P 4 c 0.41010 -0.29307 0.14827 1.00000
Rb1 Rb 4 c 0.29009 0.20623 0.15752 1.00000