# CIF file 
data_findsym-output
_audit_creation_method FINDSYM

_chemical_name_mineral 'Na(OH)6Sb'
_chemical_formula_sum 'Na O6 Sb'

loop_
_publ_author_name
 'T. Asai'
_journal_name_full_name
;
 Bulletin of the Chemical Society of Japan
;
_journal_volume 48
_journal_year 1975
_journal_page_first 2677
_journal_page_last 2679
_publ_Section_title
;
 Refinement of the Crystal Structure of Sodium Hexahydroxoantimonate(V), NaSb(OH)$_{6}$
;

# Found in The Fascination of Crystals and Symmetry, {NaSb(OH)$_{6}$}, 2014

_aflow_title 'NaSb(OH)$_{6}$ ($J1_{11}$) Structure'
_aflow_proto 'AB6C_tP32_86_d_3g_c'
_aflow_params 'a,c/a,x_{3},y_{3},z_{3},x_{4},y_{4},z_{4},x_{5},y_{5},z_{5}'
_aflow_params_values '8.029,0.983185950928,0.0558,0.2226,-0.0982,0.2792,0.582,-0.0828,0.0895,0.0685,0.2219'
_aflow_Strukturbericht '$J1_{11}$'
_aflow_Pearson 'tP32'

_symmetry_space_group_name_H-M "P 42/n (origin choice 2)"
_symmetry_Int_Tables_number 86
 
_cell_length_a    8.02900
_cell_length_b    8.02900
_cell_length_c    7.89400
_cell_angle_alpha 90.00000
_cell_angle_beta  90.00000
_cell_angle_gamma 90.00000
 
loop_
_space_group_symop_id
_space_group_symop_operation_xyz
1 x,y,z
2 -x+1/2,-y+1/2,z
3 -y,x+1/2,z+1/2
4 y+1/2,-x,z+1/2
5 -x,-y,-z
6 x+1/2,y+1/2,-z
7 y,-x+1/2,-z+1/2
8 -y+1/2,x,-z+1/2
 
loop_
_atom_site_label
_atom_site_type_symbol
_atom_site_symmetry_multiplicity
_atom_site_Wyckoff_label
_atom_site_fract_x
_atom_site_fract_y
_atom_site_fract_z
_atom_site_occupancy
Sb1 Sb 4 c 0.00000 0.00000 0.00000 1.00000
Na1 Na 4 d 0.00000 0.00000 0.50000 1.00000
O1 O 8 g 0.05580 0.22260 -0.09820 1.00000
O2 O 8 g 0.27920 0.58200 -0.08280 1.00000
O3 O 8 g 0.08950 0.06850 0.22190 1.00000
