# CIF file 
data_findsym-output
_audit_creation_method FINDSYM

_chemical_name_mineral 'NiO6Sr2Te'
_chemical_formula_sum 'Ni O6 Sr2 Te'

loop_
_publ_author_name
 'D. Iwanaga'
 'Y. Inaguma'
 'M. Itoh'
_journal_name_full_name
;
 Materials Research Bulletin
;
_journal_volume 35
_journal_year 2000
_journal_page_first 449
_journal_page_last 457
_publ_Section_title
;
 Structure and Magnetic Properties of Sr$_{2}$Ni$A$O$_{6}$ ($A$ = W, Te)
;

_aflow_title 'Sr$_{2}$NiTeO$_{6}$ Structure'
_aflow_proto 'AB6C2D_mC40_12_ad_gh4i_j_bc'
_aflow_params 'a,b/a,c/a,\beta,y_{5},y_{6},x_{7},z_{7},x_{8},z_{8},x_{9},z_{9},x_{10},z_{10},x_{11},y_{11},z_{11}'
_aflow_params_values '7.9174,0.99483416273,0.999823174274,90.378,0.26,0.759,0.266,0.028,-0.031,0.255,0.24,0.454,0.535,0.247,0.248,0.251,0.249'
_aflow_Strukturbericht 'None'
_aflow_Pearson 'mC40'

_symmetry_space_group_name_H-M "C 1 2/m 1"
_symmetry_Int_Tables_number 12
 
_cell_length_a    7.91740
_cell_length_b    7.87650
_cell_length_c    7.91600
_cell_angle_alpha 90.00000
_cell_angle_beta  90.37800
_cell_angle_gamma 90.00000
 
loop_
_space_group_symop_id
_space_group_symop_operation_xyz
1 x,y,z
2 -x,y,-z
3 -x,-y,-z
4 x,-y,z
5 x+1/2,y+1/2,z
6 -x+1/2,y+1/2,-z
7 -x+1/2,-y+1/2,-z
8 x+1/2,-y+1/2,z
 
loop_
_atom_site_label
_atom_site_type_symbol
_atom_site_symmetry_multiplicity
_atom_site_Wyckoff_label
_atom_site_fract_x
_atom_site_fract_y
_atom_site_fract_z
_atom_site_occupancy
Ni1 Ni 2 a 0.00000 0.00000 0.00000 1.00000
Te1 Te 2 b 0.00000 0.50000 0.00000 1.00000
Te2 Te 2 c 0.00000 0.00000 0.50000 1.00000
Ni2 Ni 2 d 0.00000 0.50000 0.50000 1.00000
O1 O 4 g 0.00000 0.26000 0.00000 1.00000
O2 O 4 h 0.00000 0.75900 0.50000 1.00000
O3 O 4 i 0.26600 0.00000 0.02800 1.00000
O4 O 4 i -0.03100 0.00000 0.25500 1.00000
O5 O 4 i 0.24000 0.00000 0.45400 1.00000
O6 O 4 i 0.53500 0.00000 0.24700 1.00000
Sr1 Sr 8 j 0.24800 0.25100 0.24900 1.00000