# CIF file 
data_findsym-output
_audit_creation_method FINDSYM

_chemical_name_mineral 'BeH8O8S'
_chemical_formula_sum 'Be H8 O8 S'

loop_
_publ_author_name
 'S. K. Sikka'
 'R. Chidambaram'
_journal_name_full_name
;
 Acta Crystallographica Section B: Structural Science
;
_journal_volume 25
_journal_year 1969
_journal_page_first 310
_journal_page_last 315
_publ_Section_title
;
 A neutron diffraction determination of the structure of beryllium sulphate tetrahydrate, BeSO$_{4}$$\cdot$4H$_{2}$O
;

_aflow_title 'BeSO$_{4}$$\cdot$4H$_{2}$O ($H4_{3}$) Structure'
_aflow_proto 'AB8C8D_tI72_120_c_2i_2i_b'
_aflow_params 'a,c/a,x_{3},y_{3},z_{3},x_{4},y_{4},z_{4},x_{5},y_{5},z_{5},x_{6},y_{6},z_{6}'
_aflow_params_values '7.99,1.33767209011,0.22729,0.45696,0.13106,0.1229,0.28418,0.13628,0.12563,0.08408,0.07733,0.13758,0.3956,0.17093'
_aflow_Strukturbericht '$H4_{3}$'
_aflow_Pearson 'tI72'

_symmetry_space_group_name_H-M "I -4 c 2"
_symmetry_Int_Tables_number 120
 
_cell_length_a    7.99000
_cell_length_b    7.99000
_cell_length_c    10.68800
_cell_angle_alpha 90.00000
_cell_angle_beta  90.00000
_cell_angle_gamma 90.00000
 
loop_
_space_group_symop_id
_space_group_symop_operation_xyz
1 x,y,z
2 -x,-y,z
3 -y,-x,-z+1/2
4 y,x,-z+1/2
5 -x,y,z+1/2
6 x,-y,z+1/2
7 y,-x,-z
8 -y,x,-z
9 x+1/2,y+1/2,z+1/2
10 -x+1/2,-y+1/2,z+1/2
11 -y+1/2,-x+1/2,-z
12 y+1/2,x+1/2,-z
13 -x+1/2,y+1/2,z
14 x+1/2,-y+1/2,z
15 y+1/2,-x+1/2,-z+1/2
16 -y+1/2,x+1/2,-z+1/2
 
loop_
_atom_site_label
_atom_site_type_symbol
_atom_site_symmetry_multiplicity
_atom_site_Wyckoff_label
_atom_site_fract_x
_atom_site_fract_y
_atom_site_fract_z
_atom_site_occupancy
S1 S 4 b 0.00000 0.00000 0.00000 1.00000
Be1 Be 4 c 0.00000 0.50000 0.25000 1.00000
H1 H 16 i 0.22729 0.45696 0.13106 1.00000
H2 H 16 i 0.12290 0.28418 0.13628 1.00000
O1 O 16 i 0.12563 0.08408 0.07733 1.00000
O2 O 16 i 0.13758 0.39560 0.17093 1.00000