# CIF file 
data_findsym-output
_audit_creation_method FINDSYM

_chemical_name_mineral 'Sanidine'
_chemical_formula_sum 'K O8 Si4'

loop_
_publ_author_name
 'T. A. Scambos'
 'J. R. Smyth'
 'T. C. {McCormick}'
_journal_name_full_name
;
 American Mineralogist
;
_journal_volume 72
_journal_year 1987
_journal_page_first 973
_journal_page_last 978
_publ_Section_title
;
 Crystal-structure refinement of high sanidine from the upper mantle
;

_aflow_title 'Sanidine (KAlSi$_{3}$O$_{8}$, $S6_{7}$) Structure'
_aflow_proto 'AB8C4_mC52_12_i_gi3j_2j'
_aflow_params 'a,b/a,c/a,\beta,y_{1},x_{2},z_{2},x_{3},z_{3},x_{4},y_{4},z_{4},x_{5},y_{5},z_{5},x_{6},y_{6},z_{6},x_{7},y_{7},z_{7},x_{8},y_{8},z_{8}'
_aflow_params_values '8.595,1.51576497964,0.834787667248,115.94,0.147,0.2866,0.138,0.64,0.2849,0.8302,0.1476,0.2269,0.0351,0.3105,0.2569,0.1789,0.1265,0.4083,0.00991,0.1856,0.22381,0.71075,0.11813,0.34438'
_aflow_Strukturbericht '$S6_{7}$'
_aflow_Pearson 'mC52'

_symmetry_space_group_name_H-M "C 1 2/m 1"
_symmetry_Int_Tables_number 12
 
_cell_length_a    8.59500
_cell_length_b    13.02800
_cell_length_c    7.17500
_cell_angle_alpha 90.00000
_cell_angle_beta  115.94000
_cell_angle_gamma 90.00000
 
loop_
_space_group_symop_id
_space_group_symop_operation_xyz
1 x,y,z
2 -x,y,-z
3 -x,-y,-z
4 x,-y,z
5 x+1/2,y+1/2,z
6 -x+1/2,y+1/2,-z
7 -x+1/2,-y+1/2,-z
8 x+1/2,-y+1/2,z
 
loop_
_atom_site_label
_atom_site_type_symbol
_atom_site_symmetry_multiplicity
_atom_site_Wyckoff_label
_atom_site_fract_x
_atom_site_fract_y
_atom_site_fract_z
_atom_site_occupancy
O1 O 4 g 0.00000 0.14700 0.00000 1.00000
K1 K 4 i 0.28660 0.00000 0.13800 1.00000
O2 O 4 i 0.64000 0.00000 0.28490 1.00000
O3 O 8 j 0.83020 0.14760 0.22690 1.00000
O4 O 8 j 0.03510 0.31050 0.25690 1.00000
O5 O 8 j 0.17890 0.12650 0.40830 1.00000
Si1 Si 8 j 0.00991 0.18560 0.22381 1.00000
Si2 Si 8 j 0.71075 0.11813 0.34438 1.00000