# CIF file 
data_findsym-output
_audit_creation_method FINDSYM

_chemical_name_mineral 'Nevskite'
_chemical_formula_sum 'Bi Se'

loop_
_publ_author_name
 'E. Gaudin'
 'S. Jobic'
 'M. Evain'
 'R. Brec'
 'J. Rouxel'
_journal_name_full_name
;
 Materials Research Bulletin
;
_journal_volume 30
_journal_year 1995
_journal_page_first 549
_journal_page_last 561
_publ_Section_title
;
 Charge balance in some Bi$_{x}$Se$_{y}$ phases through atomic structure determination and band structure calculations
;

_aflow_title 'Nevskite (BiSe) Structure'
_aflow_proto 'AB_hP12_164_c2d_c2d'
_aflow_params 'a,c/a,z_{1},z_{2},z_{3},z_{4},z_{5},z_{6}'
_aflow_params_values '4.212,5.44681861349,0.3727,0.1279,0.0419,0.7959,0.2797,0.5596'
_aflow_Strukturbericht 'None'
_aflow_Pearson 'hP12'

_symmetry_space_group_name_H-M "P -3 2/m 1"
_symmetry_Int_Tables_number 164
 
_cell_length_a    4.21200
_cell_length_b    4.21200
_cell_length_c    22.94200
_cell_angle_alpha 90.00000
_cell_angle_beta  90.00000
_cell_angle_gamma 120.00000
 
loop_
_space_group_symop_id
_space_group_symop_operation_xyz
1 x,y,z
2 -y,x-y,z
3 -x+y,-x,z
4 x-y,-y,-z
5 y,x,-z
6 -x,-x+y,-z
7 -x,-y,-z
8 y,-x+y,-z
9 x-y,x,-z
10 -x+y,y,z
11 -y,-x,z
12 x,x-y,z
 
loop_
_atom_site_label
_atom_site_type_symbol
_atom_site_symmetry_multiplicity
_atom_site_Wyckoff_label
_atom_site_fract_x
_atom_site_fract_y
_atom_site_fract_z
_atom_site_occupancy
Bi1 Bi 2 c 0.00000 0.00000 0.37270 1.00000
Se1 Se 2 c 0.00000 0.00000 0.12790 1.00000
Bi2 Bi 2 d 0.33333 0.66667 0.04190 1.00000
Bi3 Bi 2 d 0.33333 0.66667 0.79590 1.00000
Se2 Se 2 d 0.33333 0.66667 0.27970 1.00000
Se3 Se 2 d 0.33333 0.66667 0.55960 1.00000