# CIF file 
data_findsym-output
_audit_creation_method FINDSYM

_chemical_name_mineral 'Realgar'
_chemical_formula_sum 'As S'

loop_
_publ_author_name
 'T. Ito'
 'N. Morimoto'
 'R. Sadanaga'
_journal_name_full_name
;
 Acta Cristallographica
;
_journal_volume 5
_journal_year 1952
_journal_page_first 755
_journal_page_last 782
_publ_Section_title
;
 The Crystal Structure of Realgar
;

_aflow_title 'Realgar (AsS, $B_{l}$) Structure'
_aflow_proto 'AB_mP32_14_4e_4e'
_aflow_params 'a,b/a,c/a,\beta,x_{1},y_{1},z_{1},x_{2},y_{2},z_{2},x_{3},y_{3},z_{3},x_{4},y_{4},z_{4},x_{5},y_{5},z_{5},x_{6},y_{6},z_{6},x_{7},y_{7},z_{7},x_{8},y_{8},z_{8}'
_aflow_params_values '6.56,2.05792682927,1.47941615854,113.75283,0.359,0.524,0.118,0.567,0.36,0.425,0.137,0.373,0.318,0.328,0.339,0.038,0.641,0.508,0.346,0.093,0.524,0.213,0.608,0.275,0.245,0.067,0.285,0.115'
_aflow_Strukturbericht '$B_{l}$'
_aflow_Pearson 'mP32'

_symmetry_space_group_name_H-M "P 1 21/c 1"
_symmetry_Int_Tables_number 14
 
_cell_length_a    6.56000
_cell_length_b    13.50000
_cell_length_c    9.70497
_cell_angle_alpha 90.00000
_cell_angle_beta  113.75283
_cell_angle_gamma 90.00000
 
loop_
_space_group_symop_id
_space_group_symop_operation_xyz
1 x,y,z
2 -x,y+1/2,-z+1/2
3 -x,-y,-z
4 x,-y+1/2,z+1/2
 
loop_
_atom_site_label
_atom_site_type_symbol
_atom_site_symmetry_multiplicity
_atom_site_Wyckoff_label
_atom_site_fract_x
_atom_site_fract_y
_atom_site_fract_z
_atom_site_occupancy
As1 As 4 e 0.35900 0.52400 0.11800 1.00000
As2 As 4 e 0.56700 0.36000 0.42500 1.00000
As3 As 4 e 0.13700 0.37300 0.31800 1.00000
As4 As 4 e 0.32800 0.33900 0.03800 1.00000
S1 S 4 e 0.64100 0.50800 0.34600 1.00000
S2 S 4 e 0.09300 0.52400 0.21300 1.00000
S3 S 4 e 0.60800 0.27500 0.24500 1.00000
S4 S 4 e 0.06700 0.28500 0.11500 1.00000