# CIF file 
data_findsym-output
_audit_creation_method FINDSYM

_chemical_name_mineral 'AsLi'
_chemical_formula_sum 'As Li'

loop_
_publ_author_name
 'D. T. Cromer'
_journal_name_full_name
;
 Acta Cristallographica
;
_journal_volume 12
_journal_year 1959
_journal_page_first 36
_journal_page_last 41
_publ_Section_title
;
 The Crystal Structure of LiAs
;

# Found in Pearson's Handbook of Crystallographic Data for Intermetallic Phases, 1991

_aflow_title 'LiAs Structure'
_aflow_proto 'AB_mP16_14_2e_2e'
_aflow_params 'a,b/a,c/a,\beta,x_{1},y_{1},z_{1},x_{2},y_{2},z_{2},x_{3},y_{3},z_{3},x_{4},y_{4},z_{4}'
_aflow_params_values '5.79,0.905008635579,1.84801381693,117.4,0.3042,0.9143,0.2992,0.2891,0.1626,0.1011,0.235,0.402,0.329,0.232,0.669,0.045'
_aflow_Strukturbericht 'None'
_aflow_Pearson 'mP16'

_symmetry_space_group_name_H-M "P 1 21/c 1"
_symmetry_Int_Tables_number 14
 
_cell_length_a    5.79000
_cell_length_b    5.24000
_cell_length_c    10.70000
_cell_angle_alpha 90.00000
_cell_angle_beta  117.40000
_cell_angle_gamma 90.00000
 
loop_
_space_group_symop_id
_space_group_symop_operation_xyz
1 x,y,z
2 -x,y+1/2,-z+1/2
3 -x,-y,-z
4 x,-y+1/2,z+1/2
 
loop_
_atom_site_label
_atom_site_type_symbol
_atom_site_symmetry_multiplicity
_atom_site_Wyckoff_label
_atom_site_fract_x
_atom_site_fract_y
_atom_site_fract_z
_atom_site_occupancy
As1 As 4 e 0.30420 0.91430 0.29920 1.00000
As2 As 4 e 0.28910 0.16260 0.10110 1.00000
Li1 Li 4 e 0.23500 0.40200 0.32900 1.00000
Li2 Li 4 e 0.23200 0.66900 0.04500 1.00000