# CIF file 
data_findsym-output
_audit_creation_method FINDSYM

_chemical_name_mineral 'CsO'
_chemical_formula_sum 'Cs O'

loop_
_publ_author_name
 'M. E. Rengade'
_journal_name_full_name
;
 Comptes Rendus de l'Acad{\'e}mie des Sciences
;
_journal_volume 148
_journal_year 1909
_journal_page_first 1199
_journal_page_last 1202
_publ_Section_title
;
 Sur les Sous-Oxydes de Caesium
;

# Found in Binary Alloy Phase Diagrams, {Cd-Ce to Hf-Rb}, 1990

_aflow_title 'CsO Structure'
_aflow_proto 'AB_oI8_71_g_i'
_aflow_params 'a,b/a,c/a,y_{1},z_{2}'
_aflow_params_values '4.322,1.73924109209,1.48773715872,0.25,0.38'
_aflow_Strukturbericht 'None'
_aflow_Pearson 'oI8'

_symmetry_space_group_name_H-M "I 2/m 2/m 2/m"
_symmetry_Int_Tables_number 71
 
_cell_length_a    4.32200
_cell_length_b    7.51700
_cell_length_c    6.43000
_cell_angle_alpha 90.00000
_cell_angle_beta  90.00000
_cell_angle_gamma 90.00000
 
loop_
_space_group_symop_id
_space_group_symop_operation_xyz
1 x,y,z
2 x,-y,-z
3 -x,y,-z
4 -x,-y,z
5 -x,-y,-z
6 -x,y,z
7 x,-y,z
8 x,y,-z
9 x+1/2,y+1/2,z+1/2
10 x+1/2,-y+1/2,-z+1/2
11 -x+1/2,y+1/2,-z+1/2
12 -x+1/2,-y+1/2,z+1/2
13 -x+1/2,-y+1/2,-z+1/2
14 -x+1/2,y+1/2,z+1/2
15 x+1/2,-y+1/2,z+1/2
16 x+1/2,y+1/2,-z+1/2
 
loop_
_atom_site_label
_atom_site_type_symbol
_atom_site_symmetry_multiplicity
_atom_site_Wyckoff_label
_atom_site_fract_x
_atom_site_fract_y
_atom_site_fract_z
_atom_site_occupancy
Cs1 Cs 4 g 0.00000 0.25000 0.00000 1.00000
O1 O 4 i 0.00000 0.00000 0.38000 1.00000
