# CIF file 
data_findsym-output
_audit_creation_method FINDSYM

_chemical_name_mineral 'CuFeS2'
_chemical_formula_sum 'Cu Fe S2'

loop_
_publ_author_name
 'R. Gro{\ss}'
 'N. Gro{\ss}'
_journal_name_full_name
;
 Neues Jahrbuch fur Mineralogie, Monatshefte
;
_journal_volume 48
_journal_year 1923
_journal_page_first 113
_journal_page_last 135
_publ_Section_title
;
 ~
;

# Found in Strukturbericht 1913-1928, 1931

_aflow_title '$F6_{1}$ (Chalcopyrite, CuFeS$_{2}$) ({\em{obsolete}}) Structure'
_aflow_proto 'ABC2_tP4_115_a_c_g'
_aflow_params 'a,c/a,z_{3}'
_aflow_params_values '3.72645,1.39381985536,0.19'
_aflow_Strukturbericht '$F6_{1}$'
_aflow_Pearson 'tP4'

_symmetry_space_group_name_H-M "P -4 m 2"
_symmetry_Int_Tables_number 115
 
_cell_length_a    3.72645
_cell_length_b    3.72645
_cell_length_c    5.19400
_cell_angle_alpha 90.00000
_cell_angle_beta  90.00000
_cell_angle_gamma 90.00000
 
loop_
_space_group_symop_id
_space_group_symop_operation_xyz
1 x,y,z
2 -x,-y,z
3 -y,-x,-z
4 y,x,-z
5 -x,y,z
6 x,-y,z
7 y,-x,-z
8 -y,x,-z
 
loop_
_atom_site_label
_atom_site_type_symbol
_atom_site_symmetry_multiplicity
_atom_site_Wyckoff_label
_atom_site_fract_x
_atom_site_fract_y
_atom_site_fract_z
_atom_site_occupancy
Cu1 Cu 1 a 0.00000 0.00000 0.00000 1.00000
Fe1 Fe 1 c 0.50000 0.50000 0.50000 1.00000
S1 S 2 g 0.00000 0.50000 0.19000 1.00000
