# CIF file 
data_findsym-output
_audit_creation_method FINDSYM

_chemical_name_mineral 'CsFeS2'
_chemical_formula_sum 'Cs Fe S2'

loop_
_publ_author_name
 'Y. Ito'
 'M. Nishi'
 'C. F. Majkrzak'
 'L. Passell'
_journal_name_full_name
;
 Journal of the Physical Society of Japan
;
_journal_volume 54
_journal_year 1985
_journal_page_first 348
_journal_page_last 357
_publ_Section_title
;
 Low Temperature Powder Neutron Diffraction Studies of CsFeS$_{2}$
;

# Found in CsFeS2 (100K) Crystal Structure, {PAULING FILE in: Inorganic Solid Phases, SpringerMaterials (online database), Springer, Heidelberg (ed.) SpringerMaterials }, 2016

_aflow_title 'CsFeS$_{2}$ (100~K) Structure'
_aflow_proto 'ABC2_oI16_71_g_i_eh'
_aflow_params 'a,b/a,c/a,x_{1},y_{2},y_{3},z_{4}'
_aflow_params_values '7.09,1.67136812412,0.764456981664,0.256,0.33,0.148,0.249'
_aflow_Strukturbericht 'None'
_aflow_Pearson 'oI16'

_symmetry_space_group_name_H-M "I 2/m 2/m 2/m"
_symmetry_Int_Tables_number 71
 
_cell_length_a    7.09000
_cell_length_b    11.85000
_cell_length_c    5.42000
_cell_angle_alpha 90.00000
_cell_angle_beta  90.00000
_cell_angle_gamma 90.00000
 
loop_
_space_group_symop_id
_space_group_symop_operation_xyz
1 x,y,z
2 x,-y,-z
3 -x,y,-z
4 -x,-y,z
5 -x,-y,-z
6 -x,y,z
7 x,-y,z
8 x,y,-z
9 x+1/2,y+1/2,z+1/2
10 x+1/2,-y+1/2,-z+1/2
11 -x+1/2,y+1/2,-z+1/2
12 -x+1/2,-y+1/2,z+1/2
13 -x+1/2,-y+1/2,-z+1/2
14 -x+1/2,y+1/2,z+1/2
15 x+1/2,-y+1/2,z+1/2
16 x+1/2,y+1/2,-z+1/2
 
loop_
_atom_site_label
_atom_site_type_symbol
_atom_site_symmetry_multiplicity
_atom_site_Wyckoff_label
_atom_site_fract_x
_atom_site_fract_y
_atom_site_fract_z
_atom_site_occupancy
S1 S 4 e 0.25600 0.00000 0.00000 1.00000
Cs1 Cs 4 g 0.00000 0.33000 0.00000 1.00000
S2 S 4 h 0.00000 0.14800 0.50000 1.00000
Fe1 Fe 4 i 0.00000 0.00000 0.24900 1.00000
