# CIF file 
data_findsym-output
_audit_creation_method FINDSYM

_chemical_name_mineral 'Manganite'
_chemical_formula_sum 'H Mn O2'

loop_
_publ_author_name
 'T. Kohler'
 'T. Armbruster'
 'E. Libowitzky'
_journal_name_full_name
;
 Journal of Solid State Chemistry
;
_journal_volume 133
_journal_year 1997
_journal_page_first 486
_journal_page_last 500
_publ_Section_title
;
 Hydrogen Bonding and Jahn-Teller Distortion in Groutite, $\alpha$-MnOOH, and Manganite, $\gamma$-MnOOH, and Their Relations to the Manganese Dioxides Ramsdellite and Pyrolusite
;

_aflow_title 'Manganite ($\gamma$-MnO(OH), $E0_{6}$) Structure'
_aflow_proto 'ABC2_mP16_14_e_e_2e'
_aflow_params 'a,b/a,c/a,\beta,x_{1},y_{1},z_{1},x_{2},y_{2},z_{2},x_{3},y_{3},z_{3},x_{4},y_{4},z_{4}'
_aflow_params_values '5.304,0.994909502262,1.0,114.38,0.284,0.027,0.725,0.76316,0.01033,0.75464,0.3749,0.1238,0.6279,0.8752,0.1256,0.1206'
_aflow_Strukturbericht '$E0_{6}$'
_aflow_Pearson 'mP16'

_symmetry_space_group_name_H-M "P 1 21/c 1"
_symmetry_Int_Tables_number 14
 
_cell_length_a    5.30400
_cell_length_b    5.27700
_cell_length_c    5.30400
_cell_angle_alpha 90.00000
_cell_angle_beta  114.38000
_cell_angle_gamma 90.00000
 
loop_
_space_group_symop_id
_space_group_symop_operation_xyz
1 x,y,z
2 -x,y+1/2,-z+1/2
3 -x,-y,-z
4 x,-y+1/2,z+1/2
 
loop_
_atom_site_label
_atom_site_type_symbol
_atom_site_symmetry_multiplicity
_atom_site_Wyckoff_label
_atom_site_fract_x
_atom_site_fract_y
_atom_site_fract_z
_atom_site_occupancy
H1 H 4 e 0.28400 0.02700 0.72500 1.00000
Mn1 Mn 4 e 0.76316 0.01033 0.75464 1.00000
O1 O 4 e 0.37490 0.12380 0.62790 1.00000
O2 O 4 e 0.87520 0.12560 0.12060 1.00000