# CIF file 
data_findsym-output
_audit_creation_method FINDSYM

_chemical_name_mineral 'Sodium nitrite'
_chemical_formula_sum 'N Na O2'

loop_
_publ_author_name
 'M. I. Kay'
 'B. C. Frazier'
_journal_name_full_name
;
 Acta Cristallographica
;
_journal_volume 14
_journal_year 1961
_journal_page_first 56
_journal_page_last 57
_publ_Section_title
;
 A neutron diffraction refinement of the low temperature phase of NaNO$_{2}$
;

_aflow_title 'Ferroelectric NaNO$_{2}$ ($F5_{5}$) Structure'
_aflow_proto 'ABC2_oI8_44_a_a_c'
_aflow_params 'a,b/a,c/a,z_{1},z_{2},x_{3},z_{3}'
_aflow_params_values '5.384,0.661218424963,1.03324665676,0.88,0.4147,0.8059,0.0'
_aflow_Strukturbericht '$F5_{5}$'
_aflow_Pearson 'oI8'

_symmetry_space_group_name_H-M "I m m 2"
_symmetry_Int_Tables_number 44
 
_cell_length_a    5.38400
_cell_length_b    3.56000
_cell_length_c    5.56300
_cell_angle_alpha 90.00000
_cell_angle_beta  90.00000
_cell_angle_gamma 90.00000
 
loop_
_space_group_symop_id
_space_group_symop_operation_xyz
1 x,y,z
2 -x,-y,z
3 -x,y,z
4 x,-y,z
5 x+1/2,y+1/2,z+1/2
6 -x+1/2,-y+1/2,z+1/2
7 -x+1/2,y+1/2,z+1/2
8 x+1/2,-y+1/2,z+1/2
 
loop_
_atom_site_label
_atom_site_type_symbol
_atom_site_symmetry_multiplicity
_atom_site_Wyckoff_label
_atom_site_fract_x
_atom_site_fract_y
_atom_site_fract_z
_atom_site_occupancy
N1 N 2 a 0.00000 0.00000 0.88000 1.00000
Na1 Na 2 a 0.00000 0.00000 0.41470 1.00000
O1 O 4 c 0.80590 0.00000 0.00000 1.00000