# CIF file 
data_findsym-output
_audit_creation_method FINDSYM

_chemical_name_mineral 'Diaspore'
_chemical_formula_sum 'Al H O2'

loop_
_publ_author_name
 'R. J. Hill'
_journal_name_full_name
;
 Physics and Chemistry of Minerals
;
_journal_volume 5
_journal_year 1979
_journal_page_first 179
_journal_page_last 200
_publ_Section_title
;
 Crystal Structure Refinement and Electron Density Distribution in Diaspore
;

# Found in The American Mineralogist Crystal Structure Database, 2003

_aflow_title 'Diaspore (AlOOH, $E0_{2}$) Structure'
_aflow_proto 'ABC2_oP16_62_c_c_2c'
_aflow_params 'a,b/a,c/a,x_{1},z_{1},x_{2},z_{2},x_{3},z_{3},x_{4},z_{4}'
_aflow_params_values '9.4253,0.301868375542,0.466902910252,0.1445,-0.04472,0.80108,0.28766,-0.05338,0.80286,-0.0876,0.5905'
_aflow_Strukturbericht '$E0_{2}$'
_aflow_Pearson 'oP16'

_symmetry_space_group_name_H-M "P 21/n 21/m 21/a"
_symmetry_Int_Tables_number 62
 
_cell_length_a    9.42530
_cell_length_b    2.84520
_cell_length_c    4.40070
_cell_angle_alpha 90.00000
_cell_angle_beta  90.00000
_cell_angle_gamma 90.00000
 
loop_
_space_group_symop_id
_space_group_symop_operation_xyz
1 x,y,z
2 x+1/2,-y+1/2,-z+1/2
3 -x,y+1/2,-z
4 -x+1/2,-y,z+1/2
5 -x,-y,-z
6 -x+1/2,y+1/2,z+1/2
7 x,-y+1/2,z
8 x+1/2,y,-z+1/2
 
loop_
_atom_site_label
_atom_site_type_symbol
_atom_site_symmetry_multiplicity
_atom_site_Wyckoff_label
_atom_site_fract_x
_atom_site_fract_y
_atom_site_fract_z
_atom_site_occupancy
Al1 Al 4 c 0.14450 0.25000 -0.04472 1.00000
H1 H 4 c 0.80108 0.25000 0.28766 1.00000
O1 O 4 c -0.05338 0.25000 0.80286 1.00000
O2 O 4 c -0.08760 0.25000 0.59050 1.00000