# CIF file 
data_findsym-output
_audit_creation_method FINDSYM

_chemical_name_mineral 'ILiO3'
_chemical_formula_sum 'I Li O3'

loop_
_publ_author_name
 'H. Schulz'
_journal_name_full_name
;
 Acta Crystallographica Section B: Structural Science
;
_journal_volume 29
_journal_year 1973
_journal_page_first 2285
_journal_page_last 2289
_publ_Section_title
;
 The structure of $\beta$-LiIO$_{3}$
;

_aflow_title '$\beta$-LiIO$_{3}$ Structure'
_aflow_proto 'ABC3_tP40_86_g_g_3g'
_aflow_params 'a,c/a,x_{1},y_{1},z_{1},x_{2},y_{2},z_{2},x_{3},y_{3},z_{3},x_{4},y_{4},z_{4},x_{5},y_{5},z_{5}'
_aflow_params_values '9.7329,0.63255555898,0.0343,0.7576,0.115,0.426,0.236,0.426,0.836,0.121,-0.05,0.094,0.209,0.094,0.847,0.552,0.172'
_aflow_Strukturbericht 'None'
_aflow_Pearson 'tP40'

_symmetry_space_group_name_H-M "P 42/n (origin choice 2)"
_symmetry_Int_Tables_number 86
 
_cell_length_a    9.73290
_cell_length_b    9.73290
_cell_length_c    6.15660
_cell_angle_alpha 90.00000
_cell_angle_beta  90.00000
_cell_angle_gamma 90.00000
 
loop_
_space_group_symop_id
_space_group_symop_operation_xyz
1 x,y,z
2 -x+1/2,-y+1/2,z
3 -y,x+1/2,z+1/2
4 y+1/2,-x,z+1/2
5 -x,-y,-z
6 x+1/2,y+1/2,-z
7 y,-x+1/2,-z+1/2
8 -y+1/2,x,-z+1/2
 
loop_
_atom_site_label
_atom_site_type_symbol
_atom_site_symmetry_multiplicity
_atom_site_Wyckoff_label
_atom_site_fract_x
_atom_site_fract_y
_atom_site_fract_z
_atom_site_occupancy
I1 I 8 g 0.03430 0.75760 0.11500 1.00000
Li1 Li 8 g 0.42600 0.23600 0.42600 1.00000
O1 O 8 g 0.83600 0.12100 -0.05000 1.00000
O2 O 8 g 0.09400 0.20900 0.09400 1.00000
O3 O 8 g 0.84700 0.55200 0.17200 1.00000