# CIF file 
data_findsym-output
_audit_creation_method FINDSYM

_chemical_name_mineral 'ILiO3'
_chemical_formula_sum 'I Li O3'

loop_
_publ_author_name
 'W. H. Zachariasen'
 'F. A. Barta'
_journal_name_full_name
;
 Physical Review
;
_journal_volume 37
_journal_year 1931
_journal_page_first 1626
_journal_page_last 1630
_publ_Section_title
;
 Crystal Structure of Lithium Iodate
;

# Found in A reinvestigation of the crystal structure of LiIO$_{3}$, 1966

_aflow_title '$E2_{3}$ (LiIO$_{3}$) ({\em{obsolete}}) Structure'
_aflow_proto 'ABC3_hP10_182_c_b_g'
_aflow_params 'a,c/a,x_{3}'
_aflow_params_values '5.469,0.942585481807,0.33333'
_aflow_Strukturbericht '$E2_{3}$'
_aflow_Pearson 'hP10'

_symmetry_space_group_name_H-M "P 63 2 2"
_symmetry_Int_Tables_number 182
 
_cell_length_a    5.46900
_cell_length_b    5.46900
_cell_length_c    5.15500
_cell_angle_alpha 90.00000
_cell_angle_beta  90.00000
_cell_angle_gamma 120.00000
 
loop_
_space_group_symop_id
_space_group_symop_operation_xyz
1 x,y,z
2 x-y,x,z+1/2
3 -y,x-y,z
4 -x,-y,z+1/2
5 -x+y,-x,z
6 y,-x+y,z+1/2
7 x-y,-y,-z
8 x,x-y,-z+1/2
9 y,x,-z
10 -x+y,y,-z+1/2
11 -x,-x+y,-z
12 -y,-x,-z+1/2
 
loop_
_atom_site_label
_atom_site_type_symbol
_atom_site_symmetry_multiplicity
_atom_site_Wyckoff_label
_atom_site_fract_x
_atom_site_fract_y
_atom_site_fract_z
_atom_site_occupancy
Li1 Li 2 b 0.00000 0.00000 0.25000 1.00000
I1 I 2 c 0.33333 0.66667 0.25000 1.00000
O1 O 6 g 0.33333 0.00000 0.00000 1.00000
