# CIF file 
data_findsym-output
_audit_creation_method FINDSYM

_chemical_name_mineral 'ILiO3'
_chemical_formula_sum 'I Li O3'

loop_
_publ_author_name
 'R. Liminga'
 'C. Svensson'
 'J. Albertsson'
 'S. C. Abrahams'
_journal_name_full_name
;
 Journal of Chemical Physics
;
_journal_volume 77
_journal_year 1982
_journal_page_first 4222
_journal_page_last 4226
_publ_Section_title
;
 Gamma-lithium iodate structure at 515~K and the $\alpha$-LiIO$_{3}$ to $\gamma$-LiIO$_{3}$, $\gamma$-LiIO$_{3}$ to $\beta$-LiIO$_{3}$ phase transitions
;

_aflow_title '$\gamma$-LiIO$_{3}$ Structure'
_aflow_proto 'ABC3_oP20_33_a_a_3a'
_aflow_params 'a,b/a,c/a,x_{1},y_{1},z_{1},x_{2},y_{2},z_{2},x_{3},y_{3},z_{3},x_{4},y_{4},z_{4},x_{5},y_{5},z_{5}'
_aflow_params_values '9.422,0.622054765443,0.562619401401,0.3179,0.0751,0.0,0.0,0.0,0.0706,0.1298,0.0556,0.8087,0.4117,0.8806,0.8382,0.3663,0.3439,0.8147'
_aflow_Strukturbericht 'None'
_aflow_Pearson 'oP20'

_symmetry_space_group_name_H-M "P n a 21"
_symmetry_Int_Tables_number 33
 
_cell_length_a    9.42200
_cell_length_b    5.86100
_cell_length_c    5.30100
_cell_angle_alpha 90.00000
_cell_angle_beta  90.00000
_cell_angle_gamma 90.00000
 
loop_
_space_group_symop_id
_space_group_symop_operation_xyz
1 x,y,z
2 -x,-y,z+1/2
3 -x+1/2,y+1/2,z+1/2
4 x+1/2,-y+1/2,z
 
loop_
_atom_site_label
_atom_site_type_symbol
_atom_site_symmetry_multiplicity
_atom_site_Wyckoff_label
_atom_site_fract_x
_atom_site_fract_y
_atom_site_fract_z
_atom_site_occupancy
I1 I 4 a 0.31790 0.07510 0.00000 1.00000
Li1 Li 4 a 0.00000 0.00000 0.07060 1.00000
O1 O 4 a 0.12980 0.05560 0.80870 1.00000
O2 O 4 a 0.41170 0.88060 0.83820 1.00000
O3 O 4 a 0.36630 0.34390 0.81470 1.00000