# CIF file 
data_findsym-output
_audit_creation_method FINDSYM

_chemical_name_mineral 'NaNbO3'
_chemical_formula_sum 'Na Nb O3'

loop_
_publ_author_name
 'P. Vousden'
_journal_name_full_name
;
 Acta Cristallographica
;
_journal_volume 4
_journal_year 1951
_journal_page_first 545
_journal_page_last 551
_publ_Section_title
;
 The Structure of Ferroelectric Sodium Niobate at Room Temperature
;

# Found in The American Mineralogist Crystal Structure Database, 2003

_aflow_title 'NaNbO$_{3}$ Structure'
_aflow_proto 'ABC3_oP40_17_abcd_2e_abcd4e'
_aflow_params 'a,b/a,c/a,x_{1},x_{2},x_{3},x_{4},y_{5},y_{6},y_{7},y_{8},x_{9},y_{9},z_{9},x_{10},y_{10},z_{10},x_{11},y_{11},z_{11},x_{12},y_{12},z_{12},x_{13},y_{13},z_{13},x_{14},y_{14},z_{14}'
_aflow_params_values '5.504,1.01162790698,2.81976744186,0.481,-0.025,0.019,0.525,0.519,0.025,-0.019,0.475,0.014,0.005,0.375,0.514,0.505,0.375,0.25,0.25,0.375,0.75,0.25,0.375,0.25,0.75,0.375,0.75,0.75,0.375'
_aflow_Strukturbericht 'None'
_aflow_Pearson 'oP40'

_symmetry_space_group_name_H-M "P 2 2 21"
_symmetry_Int_Tables_number 17
 
_cell_length_a    5.50400
_cell_length_b    5.56800
_cell_length_c    15.52000
_cell_angle_alpha 90.00000
_cell_angle_beta  90.00000
_cell_angle_gamma 90.00000
 
loop_
_space_group_symop_id
_space_group_symop_operation_xyz
1 x,y,z
2 x,-y,-z
3 -x,y,-z+1/2
4 -x,-y,z+1/2
 
loop_
_atom_site_label
_atom_site_type_symbol
_atom_site_symmetry_multiplicity
_atom_site_Wyckoff_label
_atom_site_fract_x
_atom_site_fract_y
_atom_site_fract_z
_atom_site_occupancy
Na1 Na 2 a 0.48100 0.00000 0.00000 1.00000
O1 O 2 a -0.02500 0.00000 0.00000 1.00000
Na2 Na 2 b 0.01900 0.50000 0.00000 1.00000
O2 O 2 b 0.52500 0.50000 0.00000 1.00000
Na3 Na 2 c 0.00000 0.51900 0.25000 1.00000
O3 O 2 c 0.00000 0.02500 0.25000 1.00000
Na4 Na 2 d 0.50000 -0.01900 0.25000 1.00000
O4 O 2 d 0.50000 0.47500 0.25000 1.00000
Nb1 Nb 4 e 0.01400 0.00500 0.37500 1.00000
Nb2 Nb 4 e 0.51400 0.50500 0.37500 1.00000
O5 O 4 e 0.25000 0.25000 0.37500 1.00000
O6 O 4 e 0.75000 0.25000 0.37500 1.00000
O7 O 4 e 0.25000 0.75000 0.37500 1.00000
O8 O 4 e 0.75000 0.75000 0.37500 1.00000