# CIF file 
data_findsym-output
_audit_creation_method FINDSYM

_chemical_name_mineral 'AlNbO4'
_chemical_formula_sum 'Al Nb O4'

loop_
_publ_author_name
 'M. Ardit'
 'M. Dondi'
 'G. Cruciani'
_journal_name_full_name
;
 American Mineralogist
;
_journal_volume 97
_journal_year 2012
_journal_page_first 910
_journal_page_last 917
_publ_Section_title
;
 Structural stability, cation ordering, and local relaxation along the AlNbO$_{4}$-Al$_{0.5}$Cr$_{0.5}$NbO$_{4}$ join
;

# Found in The American Mineralogist Crystal Structure Database, 2003

_aflow_title 'AlNbO$_{4}$ Structure'
_aflow_proto 'ABC4_mC24_12_i_i_4i'
_aflow_params 'a,b/a,c/a,\beta,x_{1},z_{1},x_{2},z_{2},x_{3},z_{3},x_{4},z_{4},x_{5},z_{5},x_{6},z_{6}'
_aflow_params_values '12.15449,0.307293847788,0.533825771382,107.6206,0.19362,0.30116,0.1025,0.73176,0.1358,0.0099,0.0564,0.3636,0.3615,0.2985,0.2622,0.6432'
_aflow_Strukturbericht 'None'
_aflow_Pearson 'mC24'

_symmetry_space_group_name_H-M "C 1 2/m 1"
_symmetry_Int_Tables_number 12
 
_cell_length_a    12.15449
_cell_length_b    3.73500
_cell_length_c    6.48838
_cell_angle_alpha 90.00000
_cell_angle_beta  107.62060
_cell_angle_gamma 90.00000
 
loop_
_space_group_symop_id
_space_group_symop_operation_xyz
1 x,y,z
2 -x,y,-z
3 -x,-y,-z
4 x,-y,z
5 x+1/2,y+1/2,z
6 -x+1/2,y+1/2,-z
7 -x+1/2,-y+1/2,-z
8 x+1/2,-y+1/2,z
 
loop_
_atom_site_label
_atom_site_type_symbol
_atom_site_symmetry_multiplicity
_atom_site_Wyckoff_label
_atom_site_fract_x
_atom_site_fract_y
_atom_site_fract_z
_atom_site_occupancy
Al1 Al 4 i 0.19362 0.00000 0.30116 1.00000
Nb1 Nb 4 i 0.10250 0.00000 0.73176 1.00000
O1 O 4 i 0.13580 0.00000 0.00990 1.00000
O2 O 4 i 0.05640 0.00000 0.36360 1.00000
O3 O 4 i 0.36150 0.00000 0.29850 1.00000
O4 O 4 i 0.26220 0.00000 0.64320 1.00000