# CIF file 
data_findsym-output
_audit_creation_method FINDSYM

_chemical_name_mineral 'CuLiO4V'
_chemical_formula_sum 'Cu Li O4 V'

loop_
_publ_author_name
 'M. A. Lafontaine'
 'M. Leblanc'
 'G. Ferey'
_journal_name_full_name
;
 Acta Crystallographica Section C: Structural Chemistry
;
_journal_volume 45
_journal_year 1989
_journal_page_first 1205
_journal_page_last 1206
_publ_Section_title
;
 New refinement of the room-temperature structure of LiCuVO$_{4}$
;

# Found in Structure, stoichiometry and magnetic properties of the low-dimensional structure phase LiCuVO$_{4}$, 2004

_aflow_title 'LiCuVO$_{4}$ Structure'
_aflow_proto 'ABC4D_oI28_74_a_d_hi_e'
_aflow_params 'a,b/a,c/a,z_{3},y_{4},z_{4},x_{5},z_{5}'
_aflow_params_values '5.662,1.0259625574,1.54680324974,0.386,0.0164,0.2748,0.2352,-0.0007'
_aflow_Strukturbericht 'None'
_aflow_Pearson 'oI28'

_symmetry_space_group_name_H-M "I 21/m 21/m 21/a"
_symmetry_Int_Tables_number 74
 
_cell_length_a    5.66200
_cell_length_b    5.80900
_cell_length_c    8.75800
_cell_angle_alpha 90.00000
_cell_angle_beta  90.00000
_cell_angle_gamma 90.00000
 
loop_
_space_group_symop_id
_space_group_symop_operation_xyz
1 x,y,z
2 x,-y,-z
3 -x,y+1/2,-z
4 -x,-y+1/2,z
5 -x,-y,-z
6 -x,y,z
7 x,-y+1/2,z
8 x,y+1/2,-z
9 x+1/2,y+1/2,z+1/2
10 x+1/2,-y+1/2,-z+1/2
11 -x+1/2,y,-z+1/2
12 -x+1/2,-y,z+1/2
13 -x+1/2,-y+1/2,-z+1/2
14 -x+1/2,y+1/2,z+1/2
15 x+1/2,-y,z+1/2
16 x+1/2,y,-z+1/2
 
loop_
_atom_site_label
_atom_site_type_symbol
_atom_site_symmetry_multiplicity
_atom_site_Wyckoff_label
_atom_site_fract_x
_atom_site_fract_y
_atom_site_fract_z
_atom_site_occupancy
Cu1 Cu 4 a 0.00000 0.00000 0.00000 1.00000
Li1 Li 4 d 0.25000 0.25000 0.75000 1.00000
V1 V 4 e 0.00000 0.25000 0.38600 1.00000
O1 O 8 h 0.00000 0.01640 0.27480 1.00000
O2 O 8 i 0.23520 0.25000 -0.00070 1.00000