# CIF file 
data_findsym-output
_audit_creation_method FINDSYM

_chemical_name_mineral '$\alpha$-carnegieite'
_chemical_formula_sum 'Al Na O4 Si'

loop_
_publ_author_name
 'T. F. W. Barth'
 'E. Posnjak'
_journal_name_full_name
;
 Zeitschrift f{\"u}r Kristallographie - Crystalline Materials
;
_journal_volume 81
_journal_year 1932
_journal_page_first 135
_journal_page_last 141
_publ_Section_title
;
 Silicate structures of the cristobalite type: I. The crystal structure of $\alpha$-carnegieite (NaAlSiO$_{4}$)
;

_aflow_title '$\alpha$-Carnegieite (NaAlSiO$_{4}$, $S6_{5}$) Structure'
_aflow_proto 'ABC4D_cP28_198_a_a_ab_a'
_aflow_params 'a,x_{1},x_{2},x_{3},x_{4},x_{5},y_{5},z_{5}'
_aflow_params_values '7.37,0.258,0.744,0.125,0.0,0.658,0.644,0.0556'
_aflow_Strukturbericht '$S6_{5}$'
_aflow_Pearson 'cP28'

_symmetry_space_group_name_H-M "P 21 3"
_symmetry_Int_Tables_number 198
 
_cell_length_a    7.37000
_cell_length_b    7.37000
_cell_length_c    7.37000
_cell_angle_alpha 90.00000
_cell_angle_beta  90.00000
_cell_angle_gamma 90.00000
 
loop_
_space_group_symop_id
_space_group_symop_operation_xyz
1 x,y,z
2 x+1/2,-y+1/2,-z
3 -x,y+1/2,-z+1/2
4 -x+1/2,-y,z+1/2
5 y,z,x
6 y+1/2,-z+1/2,-x
7 -y,z+1/2,-x+1/2
8 -y+1/2,-z,x+1/2
9 z,x,y
10 z+1/2,-x+1/2,-y
11 -z,x+1/2,-y+1/2
12 -z+1/2,-x,y+1/2
 
loop_
_atom_site_label
_atom_site_type_symbol
_atom_site_symmetry_multiplicity
_atom_site_Wyckoff_label
_atom_site_fract_x
_atom_site_fract_y
_atom_site_fract_z
_atom_site_occupancy
Al1 Al 4 a 0.25800 0.25800 0.25800 1.00000
Na1 Na 4 a 0.74400 0.74400 0.74400 1.00000
O1 O 4 a 0.12500 0.12500 0.12500 1.00000
Si1 Si 4 a 0.00000 0.00000 0.00000 1.00000
O2 O 12 b 0.65800 0.64400 0.05560 1.00000