# CIF file 
data_findsym-output
_audit_creation_method FINDSYM

_chemical_name_mineral 'AgCoN4(NH3)2O8'
_chemical_formula_sum 'Ag Co N4 (NH3)2 O8'

loop_
_publ_author_name
 'A. F. Wells'
_journal_name_full_name
;
 Zeitschrift f{\"u}r Kristallographie - Crystalline Materials
;
_journal_volume 95
_journal_year 1936
_journal_page_first 74
_journal_page_last 82
_publ_Section_title
;
 The Crystal Structure of Silver Diamminotetranitro-cobaltiate Ag[Co(NH$_{3}$)$_{2}$(NO$_{2}$)$_{4}$]
;

# Found in Strukturbericht Band IV 1936, 1938

_aflow_title 'Ag[Co(NH$_{3}$)$_{2}$(NO$_{2}$)$_{4}$] ($J1_{9}$) Structure'
_aflow_proto 'ABC4D2E8_tP32_126_a_b_h_e_k'
_aflow_params 'a,c/a,z_{3},x_{4},x_{5},y_{5},z_{5}'
_aflow_params_values '6.67,1.56371814093,0.53,-0.055,0.06,-0.03,0.34'
_aflow_Strukturbericht '$J1_{9}$'
_aflow_Pearson 'tP32'

_symmetry_space_group_name_H-M "P 4/n 2/n 2/c (origin choice 2)"
_symmetry_Int_Tables_number 126
 
_cell_length_a    6.67000
_cell_length_b    6.67000
_cell_length_c    10.43000
_cell_angle_alpha 90.00000
_cell_angle_beta  90.00000
_cell_angle_gamma 90.00000
 
loop_
_space_group_symop_id
_space_group_symop_operation_xyz
1 x,y,z
2 x,-y+1/2,-z+1/2
3 -x+1/2,y,-z+1/2
4 -x+1/2,-y+1/2,z
5 -y+1/2,-x+1/2,-z+1/2
6 -y+1/2,x,z
7 y,-x+1/2,z
8 y,x,-z+1/2
9 -x,-y,-z
10 -x,y+1/2,z+1/2
11 x+1/2,-y,z+1/2
12 x+1/2,y+1/2,-z
13 y+1/2,x+1/2,z+1/2
14 y+1/2,-x,-z
15 -y,x+1/2,-z
16 -y,-x,z+1/2
 
loop_
_atom_site_label
_atom_site_type_symbol
_atom_site_symmetry_multiplicity
_atom_site_Wyckoff_label
_atom_site_fract_x
_atom_site_fract_y
_atom_site_fract_z
_atom_site_occupancy
Ag1 Ag 2 a 0.25000 0.25000 0.25000 1.00000
Co1 Co 2 b 0.25000 0.25000 0.75000 1.00000
NH31 NH3 4 e 0.25000 0.25000 0.53000 1.00000
N1 N 8 h -0.05500 -0.05500 0.25000 1.00000
O1 O 16 k 0.06000 -0.03000 0.34000 1.00000