# CIF file 
data_findsym-output
_audit_creation_method FINDSYM

_chemical_name_mineral 'Adamite'
_chemical_formula_sum 'As H O5 Zn2'

loop_
_publ_author_name
 'R. J. Hill'
_journal_name_full_name
;
 American Mineralogist
;
_journal_volume 61
_journal_year 1976
_journal_page_first 979
_journal_page_last 986
_publ_Section_title
;
 The crystal structure and infrared properties of adamite
;

_aflow_title 'Adamite [Zn$_{2}$(AsO$_{4}$)(OH), $H2_{7}$] Structure'
_aflow_proto 'ABC5D2_oP36_58_g_g_3gh_eg'
_aflow_params 'a,b/a,c/a,z_{1},x_{2},y_{2},x_{3},y_{3},x_{4},y_{4},x_{5},y_{5},x_{6},y_{6},x_{7},y_{7},x_{8},y_{8},z_{8}'
_aflow_params_values '8.306,1.02624608717,0.727546352035,0.24737,0.24952,0.74394,0.2,0.13,0.424,0.6447,0.1079,0.1268,0.104,0.6063,0.13482,0.36423,0.2685,0.3615,0.2778'
_aflow_Strukturbericht '$H2_{7}$'
_aflow_Pearson 'oP36'

_symmetry_space_group_name_H-M "P 21/n 21/n 2/m"
_symmetry_Int_Tables_number 58
 
_cell_length_a    8.30600
_cell_length_b    8.52400
_cell_length_c    6.04300
_cell_angle_alpha 90.00000
_cell_angle_beta  90.00000
_cell_angle_gamma 90.00000
 
loop_
_space_group_symop_id
_space_group_symop_operation_xyz
1 x,y,z
2 x+1/2,-y+1/2,-z+1/2
3 -x+1/2,y+1/2,-z+1/2
4 -x,-y,z
5 -x,-y,-z
6 -x+1/2,y+1/2,z+1/2
7 x+1/2,-y+1/2,z+1/2
8 x,y,-z
 
loop_
_atom_site_label
_atom_site_type_symbol
_atom_site_symmetry_multiplicity
_atom_site_Wyckoff_label
_atom_site_fract_x
_atom_site_fract_y
_atom_site_fract_z
_atom_site_occupancy
Zn1 Zn 4 e 0.00000 0.00000 0.24737 1.00000
As1 As 4 g 0.24952 0.74394 0.00000 1.00000
H1 H 4 g 0.20000 0.13000 0.00000 1.00000
O1 O 4 g 0.42400 0.64470 0.00000 1.00000
O2 O 4 g 0.10790 0.12680 0.00000 1.00000
O3 O 4 g 0.10400 0.60630 0.00000 1.00000
Zn2 Zn 4 g 0.13482 0.36423 0.00000 1.00000
O4 O 8 h 0.26850 0.36150 0.27780 1.00000