# CIF file 
data_findsym-output
_audit_creation_method FINDSYM

_chemical_name_mineral 'FNaNb6O15'
_chemical_formula_sum 'F Na Nb6 O15'

loop_
_publ_author_name
 'S. Andersson'
_journal_name_full_name
;
 Acta Chemica Scandinavica
;
_journal_volume 19
_journal_year 1965
_journal_page_first 2285
_journal_page_last 2290
_publ_Section_title
;
 The Crystal Structure of NaNb$_{6}$O$_{15}$F and NaNb$_{6}$O$_{15}$OH
;

_aflow_title 'NaNb$_{6}$O$_{15}$F Structure'
_aflow_proto 'ABC6D15_oC46_38_b_b_2a2d_2ab4d2e'
_aflow_params 'a,b/a,c/a,z_{1},z_{2},z_{3},z_{4},z_{5},z_{6},z_{7},y_{8},z_{8},y_{9},z_{9},y_{10},z_{10},y_{11},z_{11},y_{12},z_{12},y_{13},z_{13},y_{14},z_{14},y_{15},z_{15}'
_aflow_params_values '3.949,2.58090655862,3.7277791846,0.0,0.2142,0.856,0.519,0.0,0.404,0.226,0.3186,0.062,0.3153,0.3154,0.119,0.105,0.133,0.311,0.305,0.447,0.351,0.178,0.324,0.05,0.323,0.307'
_aflow_Strukturbericht 'None'
_aflow_Pearson 'oC46'

_symmetry_space_group_name_H-M "A m m 2"
_symmetry_Int_Tables_number 38
 
_cell_length_a    3.94900
_cell_length_b    10.19200
_cell_length_c    14.72100
_cell_angle_alpha 90.00000
_cell_angle_beta  90.00000
_cell_angle_gamma 90.00000
 
loop_
_space_group_symop_id
_space_group_symop_operation_xyz
1 x,y,z
2 -x,-y,z
3 x,-y,z
4 -x,y,z
5 x,y+1/2,z+1/2
6 -x,-y+1/2,z+1/2
7 x,-y+1/2,z+1/2
8 -x,y+1/2,z+1/2
 
loop_
_atom_site_label
_atom_site_type_symbol
_atom_site_symmetry_multiplicity
_atom_site_Wyckoff_label
_atom_site_fract_x
_atom_site_fract_y
_atom_site_fract_z
_atom_site_occupancy
Nb1 Nb 2 a 0.00000 0.00000 0.00000 1.00000
Nb2 Nb 2 a 0.00000 0.00000 0.21420 1.00000
O1 O 2 a 0.00000 0.00000 0.85600 1.00000
O2 O 2 a 0.00000 0.00000 0.51900 1.00000
F1 F 2 b 0.50000 0.00000 0.00000 1.00000
Na1 Na 2 b 0.50000 0.00000 0.40400 1.00000
O3 O 2 b 0.50000 0.00000 0.22600 1.00000
Nb3 Nb 4 d 0.00000 0.31860 0.06200 1.00000
Nb4 Nb 4 d 0.00000 0.31530 0.31540 1.00000
O4 O 4 d 0.00000 0.11900 0.10500 1.00000
O5 O 4 d 0.00000 0.13300 0.31100 1.00000
O6 O 4 d 0.00000 0.30500 0.44700 1.00000
O7 O 4 d 0.00000 0.35100 0.17800 1.00000
O8 O 4 e 0.50000 0.32400 0.05000 1.00000
O9 O 4 e 0.50000 0.32300 0.30700 1.00000