# CIF file 
data_findsym-output
_audit_creation_method FINDSYM

_chemical_name_mineral 'Albite'
_chemical_formula_sum 'Al Na O8 Si3'

loop_
_publ_author_name
 'J. V. Smith'
 'G. Artioli'
 '{\AA}. Kvick'
_journal_name_full_name
;
 American Mineralogist
;
_journal_volume 71
_journal_year 1986
_journal_page_first 727
_journal_page_last 733
_publ_Section_title
;
 Low albite, NaAlSi$_{3}$O$_{8}$: Neutron diffraction study of crystal structure at 13~K
;

_aflow_title 'Albite (NaAlSi$_{3}$O$_{8}$, $S6_{8}$) Structure'
_aflow_proto 'ABC8D3_aP26_2_i_i_8i_3i'
_aflow_params 'a,b/a,c/a,\alpha,\beta,\gamma,x_{1},y_{1},z_{1},x_{2},y_{2},z_{2},x_{3},y_{3},z_{3},x_{4},y_{4},z_{4},x_{5},y_{5},z_{5},x_{6},y_{6},z_{6},x_{7},y_{7},z_{7},x_{8},y_{8},z_{8},x_{9},y_{9},z_{9},x_{10},y_{10},z_{10},x_{11},y_{11},z_{11},x_{12},y_{12},z_{12},x_{13},y_{13},z_{13}'
_aflow_params_values '7.1576,1.03716189784,1.07544707723,115.11511,107.37724,100.55864,0.20773,0.84122,0.1767,0.14441,0.27518,0.25422,-0.03356,0.87658,0.13472,0.72111,0.40891,0.41381,0.80981,0.2953,0.07942,0.74076,0.0321,0.32928,0.26814,0.70828,0.31212,0.22592,0.32857,0.71731,0.38942,0.10112,0.31914,0.43708,0.31682,0.05324,0.23701,0.18228,0.8249,0.68677,0.41955,0.19963,0.6404,0.203,0.4392'
_aflow_Strukturbericht '$S6_{8}$'
_aflow_Pearson 'aP26'

_symmetry_space_group_name_H-M "P -1"
_symmetry_Int_Tables_number 2
 
_cell_length_a    7.15760
_cell_length_b    7.42359
_cell_length_c    7.69762
_cell_angle_alpha 115.11511
_cell_angle_beta  107.37724
_cell_angle_gamma 100.55864
 
loop_
_space_group_symop_id
_space_group_symop_operation_xyz
1 x,y,z
2 -x,-y,-z
 
loop_
_atom_site_label
_atom_site_type_symbol
_atom_site_symmetry_multiplicity
_atom_site_Wyckoff_label
_atom_site_fract_x
_atom_site_fract_y
_atom_site_fract_z
_atom_site_occupancy
Al1 Al 2 i 0.20773 0.84122 0.17670 1.00000
Na1 Na 2 i 0.14441 0.27518 0.25422 1.00000
O1 O 2 i -0.03356 0.87658 0.13472 1.00000
O2 O 2 i 0.72111 0.40891 0.41381 1.00000
O3 O 2 i 0.80981 0.29530 0.07942 1.00000
O4 O 2 i 0.74076 0.03210 0.32928 1.00000
O5 O 2 i 0.26814 0.70828 0.31212 1.00000
O6 O 2 i 0.22592 0.32857 0.71731 1.00000
O7 O 2 i 0.38942 0.10112 0.31914 1.00000
O8 O 2 i 0.43708 0.31682 0.05324 1.00000
Si1 Si 2 i 0.23701 0.18228 0.82490 1.00000
Si2 Si 2 i 0.68677 0.41955 0.19963 1.00000
Si3 Si 2 i 0.64040 0.20300 0.43920 1.00000