# CIF file 
data_findsym-output
_audit_creation_method FINDSYM

_chemical_name_mineral 'HO2Y'
_chemical_formula_sum 'O (OH) Y'

loop_
_publ_author_name
 'R. F. Klevtsova'
 'P. V. Klevtsov'
_journal_year 1965
_publ_Section_title
;
 The Crystal Structure of YOOH
;

_aflow_title 'O(OH)Y Structure'
_aflow_proto 'ABC_mP6_11_e_e_e'
_aflow_params 'a,b/a,c/a,\beta,x_{1},z_{1},x_{2},z_{2},x_{3},z_{3}'
_aflow_params_values '4.28,0.848130841121,1.41355140187,112.5,0.219,0.448,0.69,-0.058,0.643,0.312'
_aflow_Strukturbericht 'None'
_aflow_Pearson 'mP6'

_symmetry_space_group_name_H-M "P 1 21/m 1"
_symmetry_Int_Tables_number 11
 
_cell_length_a    4.28000
_cell_length_b    3.63000
_cell_length_c    6.05000
_cell_angle_alpha 90.00000
_cell_angle_beta  112.50000
_cell_angle_gamma 90.00000
 
loop_
_space_group_symop_id
_space_group_symop_operation_xyz
1 x,y,z
2 -x,y+1/2,-z
3 -x,-y,-z
4 x,-y+1/2,z
 
loop_
_atom_site_label
_atom_site_type_symbol
_atom_site_symmetry_multiplicity
_atom_site_Wyckoff_label
_atom_site_fract_x
_atom_site_fract_y
_atom_site_fract_z
_atom_site_occupancy
O1 O 2 e 0.21900 0.25000 0.44800 1.00000
OH1 OH 2 e 0.69000 0.25000 -0.05800 1.00000
Y1 Y 2 e 0.64300 0.25000 0.31200 1.00000