# CIF file 
data_findsym-output
_audit_creation_method FINDSYM

_chemical_name_mineral 'AgLaOS'
_chemical_formula_sum 'Ag La O S'

loop_
_publ_author_name
 'M. Palazzi'
 'S. Jaulmes'
_journal_name_full_name
;
 Acta Crystallographica Section B: Structural Science
;
_journal_volume 37
_journal_year 1981
_journal_page_first 1337
_journal_page_last 1339
_publ_Section_title
;
 Structure du Conducteur Ionique (LaO)AgS
;

# Found in Pnictides and Chalcogenides II, 2003

_aflow_title 'LaOAgS Structure'
_aflow_proto 'ABCD_tP8_129_b_c_a_c'
_aflow_params 'a,c/a,z_{3},z_{4}'
_aflow_params_values '4.05,2.23185185185,0.1356,0.6929'
_aflow_Strukturbericht 'None'
_aflow_Pearson 'tP8'

_symmetry_space_group_name_H-M "P 4/n 21/m 2/m (origin choice 2)"
_symmetry_Int_Tables_number 129
 
_cell_length_a    4.05000
_cell_length_b    4.05000
_cell_length_c    9.03900
_cell_angle_alpha 90.00000
_cell_angle_beta  90.00000
_cell_angle_gamma 90.00000
 
loop_
_space_group_symop_id
_space_group_symop_operation_xyz
1 x,y,z
2 x+1/2,-y,-z
3 -x,y+1/2,-z
4 -x+1/2,-y+1/2,z
5 -y,-x,-z
6 -y+1/2,x,z
7 y,-x+1/2,z
8 y+1/2,x+1/2,-z
9 -x,-y,-z
10 -x+1/2,y,z
11 x,-y+1/2,z
12 x+1/2,y+1/2,-z
13 y,x,z
14 y+1/2,-x,-z
15 -y,x+1/2,-z
16 -y+1/2,-x+1/2,z
 
loop_
_atom_site_label
_atom_site_type_symbol
_atom_site_symmetry_multiplicity
_atom_site_Wyckoff_label
_atom_site_fract_x
_atom_site_fract_y
_atom_site_fract_z
_atom_site_occupancy
O1 O 2 a 0.75000 0.25000 0.00000 1.00000
Ag1 Ag 2 b 0.75000 0.25000 0.50000 1.00000
La1 La 2 c 0.25000 0.25000 0.13560 1.00000
S1 S 2 c 0.25000 0.25000 0.69290 1.00000