# CIF file 
data_findsym-output
_audit_creation_method FINDSYM

_chemical_name_mineral 'Bastn\"{a}site'
_chemical_formula_sum 'C Ce F O3'

loop_
_publ_author_name
 'Y. Ni'
 'J. M. Hughes'
 'A. N. Mariano'
_journal_name_full_name
;
 American Mineralogist
;
_journal_volume 78
_journal_year 1993
_journal_page_first 415
_journal_page_last 418
_publ_Section_title
;
 The atomic arrangement of bastn\"{a}site-(Ce), Ce(CO$_{3}$)F, and structural elements of synchysite-(Ce), r{\"o}ntgenite-(Ce), and parisite-(Ce)
;

_aflow_title 'Bastn\"{a}site [CeF(CO$_{3}$)] Structure'
_aflow_proto 'ABCD3_hP36_190_h_g_af_hi'
_aflow_params 'a,c/a,z_{2},x_{3},x_{4},y_{4},x_{5},y_{5},x_{6},y_{6},z_{6}'
_aflow_params_values '7.1175,1.37153494907,0.449,0.33941,0.032,0.71,0.207,0.891,0.3245,0.3828,0.6354'
_aflow_Strukturbericht '$G7_{1}$'
_aflow_Pearson 'hP36'

_symmetry_space_group_name_H-M "P -6 2 c"
_symmetry_Int_Tables_number 190
 
_cell_length_a    7.11750
_cell_length_b    7.11750
_cell_length_c    9.76190
_cell_angle_alpha 90.00000
_cell_angle_beta  90.00000
_cell_angle_gamma 120.00000
 
loop_
_space_group_symop_id
_space_group_symop_operation_xyz
1 x,y,z
2 -y,x-y,z
3 -x+y,-x,z
4 x-y,-y,-z
5 y,x,-z
6 -x,-x+y,-z
7 -x+y,-x,-z+1/2
8 x,y,-z+1/2
9 -y,x-y,-z+1/2
10 -x,-x+y,z+1/2
11 x-y,-y,z+1/2
12 y,x,z+1/2
 
loop_
_atom_site_label
_atom_site_type_symbol
_atom_site_symmetry_multiplicity
_atom_site_Wyckoff_label
_atom_site_fract_x
_atom_site_fract_y
_atom_site_fract_z
_atom_site_occupancy
F1 F 2 a 0.00000 0.00000 0.00000 1.00000
F2 F 4 f 0.33333 0.66667 0.44900 1.00000
Ce1 Ce 6 g 0.33941 0.00000 0.00000 1.00000
C1 C 6 h 0.03200 0.71000 0.25000 1.00000
O1 O 6 h 0.20700 0.89100 0.25000 1.00000
O2 O 12 i 0.32450 0.38280 0.63540 1.00000