# CIF file 
data_findsym-output
_audit_creation_method FINDSYM

_chemical_name_mineral 'H10Hf'
_chemical_formula_sum 'H10 Hf'

loop_
_publ_author_name
 'H. Xie'
 'Y. Yao'
 'X. Feng'
 'D. Duan'
 'H. Song'
 'Z. Zhang'
 'S. Jiang'
 'S. A. T. Redfern'
 'V. Z. Kresin'
 'C. J. Pickard'
 'T. Cui'
_journal_name_full_name
;
 Physical Review Letters
;
_journal_volume 125
_journal_year 2020
_journal_page_first 217001
_journal_page_last 217001
_publ_Section_title
;
 Hydrogen pentagraphenelike structure stabilized by hafnium: a high-temperature conventional superconductor
;

_aflow_title 'Proposed 300~GPa HfH$_{10}$ Structure'
_aflow_proto 'A10B_hP22_194_bhj_c'
_aflow_params 'a,c/a,x_{3},x_{4},y_{4}'
_aflow_params_values '4.633,0.562702352687,0.115,0.375,0.077'
_aflow_Strukturbericht 'None'
_aflow_Pearson 'hP22'

_symmetry_space_group_name_H-M "P 63/m 2/m 2/c"
_symmetry_Int_Tables_number 194
 
_cell_length_a    4.63300
_cell_length_b    4.63300
_cell_length_c    2.60700
_cell_angle_alpha 90.00000
_cell_angle_beta  90.00000
_cell_angle_gamma 120.00000
 
loop_
_space_group_symop_id
_space_group_symop_operation_xyz
1 x,y,z
2 x-y,x,z+1/2
3 -y,x-y,z
4 -x,-y,z+1/2
5 -x+y,-x,z
6 y,-x+y,z+1/2
7 x-y,-y,-z
8 x,x-y,-z+1/2
9 y,x,-z
10 -x+y,y,-z+1/2
11 -x,-x+y,-z
12 -y,-x,-z+1/2
13 -x,-y,-z
14 -x+y,-x,-z+1/2
15 y,-x+y,-z
16 x,y,-z+1/2
17 x-y,x,-z
18 -y,x-y,-z+1/2
19 -x+y,y,z
20 -x,-x+y,z+1/2
21 -y,-x,z
22 x-y,-y,z+1/2
23 x,x-y,z
24 y,x,z+1/2
 
loop_
_atom_site_label
_atom_site_type_symbol
_atom_site_symmetry_multiplicity
_atom_site_Wyckoff_label
_atom_site_fract_x
_atom_site_fract_y
_atom_site_fract_z
_atom_site_occupancy
H1 H 2 b 0.00000 0.00000 0.25000 1.00000
Hf1 Hf 2 c 0.33333 0.66667 0.25000 1.00000
H2 H 6 h 0.11500 0.23000 0.25000 1.00000
H3 H 12 j 0.37500 0.07700 0.25000 1.00000
