# CIF file 
data_findsym-output
_audit_creation_method FINDSYM

_chemical_name_mineral 'Rh20Si13'
_chemical_formula_sum 'Rh10 Si7'

loop_
_publ_author_name
 'I. Engstr\"{o}m'
_journal_name_full_name
;
 Acta Chemica Scandinavica
;
_journal_volume 19
_journal_year 1965
_journal_page_first 1924
_journal_page_last 1932
_publ_Section_title
;
 The Crystal Structure of Rh$_{20}$Si$_{13}$
;

_aflow_title 'Rh$_{20}$Si$_{13}$ Structure'
_aflow_proto 'A10B7_hP34_176_c3h_b2h'
_aflow_params 'a,c/a,x_{3},y_{3},x_{4},y_{4},x_{5},y_{5},x_{6},y_{6},x_{7},y_{7}'
_aflow_params_values '11.85,0.305738396624,0.8124,0.8157,0.5992,0.8717,0.39,-0.0713,0.7667,0.1058,0.5497,0.1678'
_aflow_Strukturbericht 'None'
_aflow_Pearson 'hP34'

_symmetry_space_group_name_H-M "P 63/m"
_symmetry_Int_Tables_number 176
 
_cell_length_a    11.85000
_cell_length_b    11.85000
_cell_length_c    3.62300
_cell_angle_alpha 90.00000
_cell_angle_beta  90.00000
_cell_angle_gamma 120.00000
 
loop_
_space_group_symop_id
_space_group_symop_operation_xyz
1 x,y,z
2 x-y,x,z+1/2
3 -y,x-y,z
4 -x,-y,z+1/2
5 -x+y,-x,z
6 y,-x+y,z+1/2
7 -x,-y,-z
8 -x+y,-x,-z+1/2
9 y,-x+y,-z
10 x,y,-z+1/2
11 x-y,x,-z
12 -y,x-y,-z+1/2
 
loop_
_atom_site_label
_atom_site_type_symbol
_atom_site_symmetry_multiplicity
_atom_site_Wyckoff_label
_atom_site_fract_x
_atom_site_fract_y
_atom_site_fract_z
_atom_site_occupancy
Si1 Si 2 b 0.00000 0.00000 0.00000 0.50000
Rh1 Rh 2 c 0.33333 0.66667 0.25000 1.00000
Rh2 Rh 6 h 0.81240 0.81570 0.25000 1.00000
Rh3 Rh 6 h 0.59920 0.87170 0.25000 1.00000
Rh4 Rh 6 h 0.39000 -0.07130 0.25000 1.00000
Si2 Si 6 h 0.76670 0.10580 0.25000 1.00000
Si3 Si 6 h 0.54970 0.16780 0.25000 1.00000
