# CIF file 
data_findsym-output
_audit_creation_method FINDSYM

_chemical_name_mineral 'O11P2W2'
_chemical_formula_sum 'O11 P2 W2'

loop_
_publ_author_name
 'P. Kierkegaard'
 'S. {\AA}sbrink'
_journal_name_full_name
;
 Acta Chemica Scandinavica
;
_journal_volume 18
_journal_year 1964
_journal_page_first 2329
_journal_page_last 2338
_publ_Section_title
;
 The Crystal Structure of W$_{2}$O$_{3}$(PO$_{4}$)$_{2}$. Determination of a Superstructure by Means of Least-Squares Calculations
;

_aflow_title 'W$_{2}$O$_{3}$(PO$_{4}$)$_{2}$ Structure'
_aflow_proto 'A11B2C2_mP60_4_22a_4a_4a'
_aflow_params 'a,b/a,c/a,\beta,x_{1},y_{1},z_{1},x_{2},y_{2},z_{2},x_{3},y_{3},z_{3},x_{4},y_{4},z_{4},x_{5},y_{5},z_{5},x_{6},y_{6},z_{6},x_{7},y_{7},z_{7},x_{8},y_{8},z_{8},x_{9},y_{9},z_{9},x_{10},y_{10},z_{10},x_{11},y_{11},z_{11},x_{12},y_{12},z_{12},x_{13},y_{13},z_{13},x_{14},y_{14},z_{14},x_{15},y_{15},z_{15},x_{16},y_{16},z_{16},x_{17},y_{17},z_{17},x_{18},y_{18},z_{18},x_{19},y_{19},z_{19},x_{20},y_{20},z_{20},x_{21},y_{21},z_{21},x_{22},y_{22},z_{22},x_{23},y_{23},z_{23},x_{24},y_{24},z_{24},x_{25},y_{25},z_{25},x_{26},y_{26},z_{26},x_{27},y_{27},z_{27},x_{28},y_{28},z_{28},x_{29},y_{29},z_{29},x_{30},y_{30},z_{30}'
_aflow_params_values '7.822,1.59805676298,0.991306571209,91.05,0.224,0.099,0.084,0.796,0.889,0.811,0.258,-0.096,0.129,0.839,0.079,0.842,0.193,0.009,0.442,0.852,-0.005,0.561,0.834,0.017,0.197,0.086,-0.024,0.788,0.517,-0.012,0.57,0.991,0.229,0.991,0.088,0.243,0.331,-0.089,0.3,0.665,0.421,0.263,0.257,0.584,0.267,0.722,0.652,0.239,0.082,0.326,0.287,-0.078,0.41,0.01,0.888,0.497,0.007,0.208,0.279,0.162,0.664,0.687,0.842,0.389,0.301,0.841,0.669,0.64,0.155,0.343,0.3226,0.0046,0.0737,0.8943,-0.0084,0.7508,0.6178,0.2582,0.2607,0.382,0.2606,0.7514,0.3082,-0.0024,0.6351,0.7024,-0.0071,0.3585,0.1913,0.2501,0.1533,0.8074,0.2557,0.8462'
_aflow_Strukturbericht 'None'
_aflow_Pearson 'mP60'

_symmetry_space_group_name_H-M "P 1 21 1"
_symmetry_Int_Tables_number 4
 
_cell_length_a    7.82200
_cell_length_b    12.50000
_cell_length_c    7.75400
_cell_angle_alpha 90.00000
_cell_angle_beta  91.05000
_cell_angle_gamma 90.00000
 
loop_
_space_group_symop_id
_space_group_symop_operation_xyz
1 x,y,z
2 -x,y+1/2,-z
 
loop_
_atom_site_label
_atom_site_type_symbol
_atom_site_symmetry_multiplicity
_atom_site_Wyckoff_label
_atom_site_fract_x
_atom_site_fract_y
_atom_site_fract_z
_atom_site_occupancy
O1 O 2 a 0.22400 0.09900 0.08400 1.00000
O2 O 2 a 0.79600 0.88900 0.81100 1.00000
O3 O 2 a 0.25800 -0.09600 0.12900 1.00000
O4 O 2 a 0.83900 0.07900 0.84200 1.00000
O5 O 2 a 0.19300 0.00900 0.44200 1.00000
O6 O 2 a 0.85200 -0.00500 0.56100 1.00000
O7 O 2 a 0.83400 0.01700 0.19700 1.00000
O8 O 2 a 0.08600 -0.02400 0.78800 1.00000
O9 O 2 a 0.51700 -0.01200 0.57000 1.00000
O10 O 2 a 0.99100 0.22900 0.99100 1.00000
O11 O 2 a 0.08800 0.24300 0.33100 1.00000
O12 O 2 a -0.08900 0.30000 0.66500 1.00000
O13 O 2 a 0.42100 0.26300 0.25700 1.00000
O14 O 2 a 0.58400 0.26700 0.72200 1.00000
O15 O 2 a 0.65200 0.23900 0.08200 1.00000
O16 O 2 a 0.32600 0.28700 -0.07800 1.00000
O17 O 2 a 0.41000 0.01000 0.88800 1.00000
O18 O 2 a 0.49700 0.00700 0.20800 1.00000
O19 O 2 a 0.27900 0.16200 0.66400 1.00000
O20 O 2 a 0.68700 0.84200 0.38900 1.00000
O21 O 2 a 0.30100 0.84100 0.66900 1.00000
O22 O 2 a 0.64000 0.15500 0.34300 1.00000
P1 P 2 a 0.32260 0.00460 0.07370 1.00000
P2 P 2 a 0.89430 -0.00840 0.75080 1.00000
P3 P 2 a 0.61780 0.25820 0.26070 1.00000
P4 P 2 a 0.38200 0.26060 0.75140 1.00000
W1 W 2 a 0.30820 -0.00240 0.63510 1.00000
W2 W 2 a 0.70240 -0.00710 0.35850 1.00000
W3 W 2 a 0.19130 0.25010 0.15330 1.00000
W4 W 2 a 0.80740 0.25570 0.84620 1.00000