# CIF file 
data_findsym-output
_audit_creation_method FINDSYM

_chemical_name_mineral 'Be12Ti'
_chemical_formula_sum 'Be12 Ti'

loop_
_publ_author_name
 'R. F. Raeuchle'
 'R. E. Rundle'
_journal_name_full_name
;
 Acta Cristallographica
;
_journal_volume 5
_journal_year 1952
_journal_page_first 85
_journal_page_last 93
_publ_Section_title
;
 The Structure of TiBe$_{12}$
;

# Found in Resolving the structure of TiBe$_{12}$, 2016

_aflow_title 'TiBe$_{12}$ (approximate, $D2_{a}$) Structure'
_aflow_proto 'A12B_hP13_191_cdei_a'
_aflow_params 'a,c/a,z_{4},z_{5}'
_aflow_params_values '4.23,1.73286052009,0.29,0.25'
_aflow_Strukturbericht '$D2_{a}$'
_aflow_Pearson 'hP13'

_symmetry_space_group_name_H-M "P 6/m 2/m 2/m"
_symmetry_Int_Tables_number 191
 
_cell_length_a    4.23000
_cell_length_b    4.23000
_cell_length_c    7.33000
_cell_angle_alpha 90.00000
_cell_angle_beta  90.00000
_cell_angle_gamma 120.00000
 
loop_
_space_group_symop_id
_space_group_symop_operation_xyz
1 x,y,z
2 x-y,x,z
3 -y,x-y,z
4 -x,-y,z
5 -x+y,-x,z
6 y,-x+y,z
7 x-y,-y,-z
8 x,x-y,-z
9 y,x,-z
10 -x+y,y,-z
11 -x,-x+y,-z
12 -y,-x,-z
13 -x,-y,-z
14 -x+y,-x,-z
15 y,-x+y,-z
16 x,y,-z
17 x-y,x,-z
18 -y,x-y,-z
19 -x+y,y,z
20 -x,-x+y,z
21 -y,-x,z
22 x-y,-y,z
23 x,x-y,z
24 y,x,z
 
loop_
_atom_site_label
_atom_site_type_symbol
_atom_site_symmetry_multiplicity
_atom_site_Wyckoff_label
_atom_site_fract_x
_atom_site_fract_y
_atom_site_fract_z
_atom_site_occupancy
Ti1 Ti 1 a 0.00000 0.00000 0.00000 1.00000
Be1 Be 2 c 0.33333 0.66667 0.00000 1.00000
Be2 Be 2 d 0.33333 0.66667 0.50000 1.00000
Be3 Be 2 e 0.00000 0.00000 0.29000 1.00000
Be4 Be 6 i 0.50000 0.00000 0.25000 1.00000