# CIF file 
data_findsym-output
_audit_creation_method FINDSYM

_chemical_name_mineral 'Al13Co4'
_chemical_formula_sum 'Al13 Co4'

loop_
_publ_author_name
 'J. Grin'
 'U. Burkhard'
 'M. Ellner'
 'K. Peters'
_journal_name_full_name
;
 Journal of Alloys and Compounds
;
_journal_volume 206
_journal_year 1994
_journal_page_first 243
_journal_page_last 247
_publ_Section_title
;
 Crystal structure of orthorhombic Co$_{4}$Al$_{13}$
;

# Found in Structure investigation of the (100) surface of the orthorhombic Al$_{13}$Co$_{4}$ crystal, 2009

_aflow_title 'Orthorhombic Co$_{4}$Al$_{13}$ Structure'
_aflow_proto 'A13B4_oP102_31_17a11b_8a2b'
_aflow_params 'a,b/a,c/a,y_{1},z_{1},y_{2},z_{2},y_{3},z_{3},y_{4},z_{4},y_{5},z_{5},y_{6},z_{6},y_{7},z_{7},y_{8},z_{8},y_{9},z_{9},y_{10},z_{10},y_{11},z_{11},y_{12},z_{12},y_{13},z_{13},y_{14},z_{14},y_{15},z_{15},y_{16},z_{16},y_{17},z_{17},y_{18},z_{18},y_{19},z_{19},y_{20},z_{20},y_{21},z_{21},y_{22},z_{22},y_{23},z_{23},y_{24},z_{24},y_{25},z_{25},x_{26},y_{26},z_{26},x_{27},y_{27},z_{27},x_{28},y_{28},z_{28},x_{29},y_{29},z_{29},x_{30},y_{30},z_{30},x_{31},y_{31},z_{31},x_{32},y_{32},z_{32},x_{33},y_{33},z_{33},x_{34},y_{34},z_{34},x_{35},y_{35},z_{35},x_{36},y_{36},z_{36},x_{37},y_{37},z_{37},x_{38},y_{38},z_{38}'
_aflow_params_values '8.158,1.51287080167,1.77151262564,-0.0055,0.8151,0.0914,-0.0431,-0.0947,0.6226,-0.0915,0.4431,0.1394,0.6728,0.8113,0.1564,0.8092,0.836,0.252,0.414,0.407,0.852,0.401,0.1491,0.6837,0.6749,0.59,0.396,0.5271,0.0054,0.5986,0.2149,0.7111,-0.0332,0.1047,0.238,0.4179,0.5881,0.8978,0.0,0.0901,0.5114,0.1977,0.825,0.772,0.3167,0.5986,0.8248,0.4119,0.3137,0.7309,0.518,0.2877,0.0076,0.2135,0.2138,0.0996,0.2138,-0.098,0.2831,0.2401,0.0829,0.4088,0.2534,0.255,-0.0828,0.2251,-0.019,0.0935,0.2214,0.2229,0.55,0.2259,0.5885,0.5422,0.2244,0.2946,0.7352,0.2291,0.422,0.4252,0.2133,0.5174,0.7338,0.2319,0.2763,0.2849,0.2257,-0.0901,0.7346,0.2181,0.5969,0.0984'
_aflow_Strukturbericht 'None'
_aflow_Pearson 'oP102'

_symmetry_space_group_name_H-M "P m n 21"
_symmetry_Int_Tables_number 31
 
_cell_length_a    8.15800
_cell_length_b    12.34200
_cell_length_c    14.45200
_cell_angle_alpha 90.00000
_cell_angle_beta  90.00000
_cell_angle_gamma 90.00000
 
loop_
_space_group_symop_id
_space_group_symop_operation_xyz
1 x,y,z
2 -x+1/2,-y,z+1/2
3 -x,y,z
4 x+1/2,-y,z+1/2
 
loop_
_atom_site_label
_atom_site_type_symbol
_atom_site_symmetry_multiplicity
_atom_site_Wyckoff_label
_atom_site_fract_x
_atom_site_fract_y
_atom_site_fract_z
_atom_site_occupancy
Al1 Al 2 a 0.00000 -0.00550 0.81510 1.00000
Al2 Al 2 a 0.00000 0.09140 -0.04310 1.00000
Al3 Al 2 a 0.00000 -0.09470 0.62260 1.00000
Al4 Al 2 a 0.00000 -0.09150 0.44310 1.00000
Al5 Al 2 a 0.00000 0.13940 0.67280 1.00000
Al6 Al 2 a 0.00000 0.81130 0.15640 1.00000
Al7 Al 2 a 0.00000 0.80920 0.83600 1.00000
Al8 Al 2 a 0.00000 0.25200 0.41400 1.00000
Al9 Al 2 a 0.00000 0.40700 0.85200 1.00000
Al10 Al 2 a 0.00000 0.40100 0.14910 1.00000
Al11 Al 2 a 0.00000 0.68370 0.67490 1.00000
Al12 Al 2 a 0.00000 0.59000 0.39600 1.00000
Al13 Al 2 a 0.00000 0.52710 0.00540 1.00000
Al14 Al 2 a 0.00000 0.59860 0.21490 1.00000
Al15 Al 2 a 0.00000 0.71110 -0.03320 1.00000
Al16 Al 2 a 0.00000 0.10470 0.23800 1.00000
Al17 Al 2 a 0.00000 0.41790 0.58810 1.00000
Co1 Co 2 a 0.00000 0.89780 0.00000 1.00000
Co2 Co 2 a 0.00000 0.09010 0.51140 1.00000
Co3 Co 2 a 0.00000 0.19770 0.82500 1.00000
Co4 Co 2 a 0.00000 0.77200 0.31670 1.00000
Co5 Co 2 a 0.00000 0.59860 0.82480 1.00000
Co6 Co 2 a 0.00000 0.41190 0.31370 1.00000
Co7 Co 2 a 0.00000 0.73090 0.51800 1.00000
Co8 Co 2 a 0.00000 0.28770 0.00760 1.00000
Al18 Al 4 b 0.21350 0.21380 0.09960 1.00000
Al19 Al 4 b 0.21380 -0.09800 0.28310 1.00000
Al20 Al 4 b 0.24010 0.08290 0.40880 1.00000
Al21 Al 4 b 0.25340 0.25500 -0.08280 1.00000
Al22 Al 4 b 0.22510 -0.01900 0.09350 1.00000
Al23 Al 4 b 0.22140 0.22290 0.55000 1.00000
Al24 Al 4 b 0.22590 0.58850 0.54220 1.00000
Al25 Al 4 b 0.22440 0.29460 0.73520 1.00000
Al26 Al 4 b 0.22910 0.42200 0.42520 1.00000
Al27 Al 4 b 0.21330 0.51740 0.73380 1.00000
Al28 Al 4 b 0.23190 0.27630 0.28490 1.00000
Co9 Co 4 b 0.22570 -0.09010 0.73460 1.00000
Co10 Co 4 b 0.21810 0.59690 0.09840 1.00000