# CIF file 
data_findsym-output
_audit_creation_method FINDSYM

_chemical_name_mineral 'Murataite'
_chemical_formula_sum 'F16 O40 Ti12 Y6 Zn5'

loop_
_publ_author_name
 'T. S. Ercit'
 'F. C. Hawthorne'
_journal_name_full_name
;
 Canadian Mineralogist
;
_journal_volume 33
_journal_year 1995
_journal_page_first 1233
_journal_page_last 1229
_publ_Section_title
;
 Murataite, A UB$_{12}$ derivative structure with condensed Keggin molecules
;

_aflow_title 'Murataite [(Y,Na)$_{6}$(Zn,Fe)$_{5}$Ti$_{12}$O$_{29}$(O,F)$_{10}$F$_{4}$] Structure'
_aflow_proto 'A16B40C12D6E5_cF316_216_eh_e2g2h_h_f_be'
_aflow_params 'a,x_{2},x_{3},x_{4},x_{5},x_{6},x_{7},x_{8},z_{8},x_{9},z_{9},x_{10},z_{10},x_{11},z_{11}'
_aflow_params_values '14.886,0.079,0.4262,0.1722,0.1812,0.267,0.515,0.894,-0.085,-0.0729,0.7024,0.6038,0.258,0.8371,0.4913'
_aflow_Strukturbericht 'None'
_aflow_Pearson 'cF316'

_symmetry_space_group_name_H-M "F -4 3 m"
_symmetry_Int_Tables_number 216
 
_cell_length_a    14.88600
_cell_length_b    14.88600
_cell_length_c    14.88600
_cell_angle_alpha 90.00000
_cell_angle_beta  90.00000
_cell_angle_gamma 90.00000
 
loop_
_space_group_symop_id
_space_group_symop_operation_xyz
1 x,y,z
2 x,-y,-z
3 -x,y,-z
4 -x,-y,z
5 y,z,x
6 y,-z,-x
7 -y,z,-x
8 -y,-z,x
9 z,x,y
10 z,-x,-y
11 -z,x,-y
12 -z,-x,y
13 y,x,z
14 y,-x,-z
15 -y,x,-z
16 -y,-x,z
17 x,z,y
18 x,-z,-y
19 -x,z,-y
20 -x,-z,y
21 z,y,x
22 z,-y,-x
23 -z,y,-x
24 -z,-y,x
25 x,y+1/2,z+1/2
26 x,-y+1/2,-z+1/2
27 -x,y+1/2,-z+1/2
28 -x,-y+1/2,z+1/2
29 y,z+1/2,x+1/2
30 y,-z+1/2,-x+1/2
31 -y,z+1/2,-x+1/2
32 -y,-z+1/2,x+1/2
33 z,x+1/2,y+1/2
34 z,-x+1/2,-y+1/2
35 -z,x+1/2,-y+1/2
36 -z,-x+1/2,y+1/2
37 y,x+1/2,z+1/2
38 y,-x+1/2,-z+1/2
39 -y,x+1/2,-z+1/2
40 -y,-x+1/2,z+1/2
41 x,z+1/2,y+1/2
42 x,-z+1/2,-y+1/2
43 -x,z+1/2,-y+1/2
44 -x,-z+1/2,y+1/2
45 z,y+1/2,x+1/2
46 z,-y+1/2,-x+1/2
47 -z,y+1/2,-x+1/2
48 -z,-y+1/2,x+1/2
49 x+1/2,y,z+1/2
50 x+1/2,-y,-z+1/2
51 -x+1/2,y,-z+1/2
52 -x+1/2,-y,z+1/2
53 y+1/2,z,x+1/2
54 y+1/2,-z,-x+1/2
55 -y+1/2,z,-x+1/2
56 -y+1/2,-z,x+1/2
57 z+1/2,x,y+1/2
58 z+1/2,-x,-y+1/2
59 -z+1/2,x,-y+1/2
60 -z+1/2,-x,y+1/2
61 y+1/2,x,z+1/2
62 y+1/2,-x,-z+1/2
63 -y+1/2,x,-z+1/2
64 -y+1/2,-x,z+1/2
65 x+1/2,z,y+1/2
66 x+1/2,-z,-y+1/2
67 -x+1/2,z,-y+1/2
68 -x+1/2,-z,y+1/2
69 z+1/2,y,x+1/2
70 z+1/2,-y,-x+1/2
71 -z+1/2,y,-x+1/2
72 -z+1/2,-y,x+1/2
73 x+1/2,y+1/2,z
74 x+1/2,-y+1/2,-z
75 -x+1/2,y+1/2,-z
76 -x+1/2,-y+1/2,z
77 y+1/2,z+1/2,x
78 y+1/2,-z+1/2,-x
79 -y+1/2,z+1/2,-x
80 -y+1/2,-z+1/2,x
81 z+1/2,x+1/2,y
82 z+1/2,-x+1/2,-y
83 -z+1/2,x+1/2,-y
84 -z+1/2,-x+1/2,y
85 y+1/2,x+1/2,z
86 y+1/2,-x+1/2,-z
87 -y+1/2,x+1/2,-z
88 -y+1/2,-x+1/2,z
89 x+1/2,z+1/2,y
90 x+1/2,-z+1/2,-y
91 -x+1/2,z+1/2,-y
92 -x+1/2,-z+1/2,y
93 z+1/2,y+1/2,x
94 z+1/2,-y+1/2,-x
95 -z+1/2,y+1/2,-x
96 -z+1/2,-y+1/2,x
 
loop_
_atom_site_label
_atom_site_type_symbol
_atom_site_symmetry_multiplicity
_atom_site_Wyckoff_label
_atom_site_fract_x
_atom_site_fract_y
_atom_site_fract_z
_atom_site_occupancy
Zn1 Zn 4 b 0.50000 0.50000 0.50000 1.00000
F1 F 16 e 0.07900 0.07900 0.07900 1.00000
O1 O 16 e 0.42620 0.42620 0.42620 1.00000
Zn2 Zn 16 e 0.17220 0.17220 0.17220 1.00000
Y1 Y 24 f 0.18120 0.00000 0.00000 1.00000
O2 O 24 g 0.26700 0.25000 0.25000 1.00000
O3 O 24 g 0.51500 0.25000 0.25000 1.00000
F2 F 48 h 0.89400 0.89400 -0.08500 1.00000
O4 O 48 h -0.07290 -0.07290 0.70240 1.00000
O5 O 48 h 0.60380 0.60380 0.25800 1.00000
Ti1 Ti 48 h 0.83710 0.83710 0.49130 1.00000