# CIF file 
data_findsym-output
_audit_creation_method FINDSYM

_chemical_name_mineral 'Re25Zr21'
_chemical_formula_sum 'Re25 Zr21'

loop_
_publ_author_name
 'K. Cenzual'
 'E. Parth\\'{e}'
 'R. M. Waterstrat'
_journal_name_full_name
;
 Acta Crystallographica Section C: Structural Chemistry
;
_journal_volume 42
_journal_year 1986
_journal_page_first 261
_journal_page_last 266
_publ_Section_title
;
 Zr$_{21}$Re$_{25}$, a new rhombohedral structure type containing 12~{\AA}-thick infinite MgZn$_{2}$(Laves)-type columns
;

# Found in The intermetallic compound Mg$_{21}$Zn$_{25}$, 2002

_aflow_title 'Zr$_{21}$Re$_{25}$ Structure'
_aflow_proto 'A25B21_hR92_167_b2e3f_e3f'
_aflow_params 'a,c/a,x_{2},x_{3},x_{4},x_{5},y_{5},z_{5},x_{6},y_{6},z_{6},x_{7},y_{7},z_{7},x_{8},y_{8},z_{8},x_{9},y_{9},z_{9},x_{10},y_{10},z_{10}'
_aflow_params_values '25.847,0.339343057221,0.189,0.8054,0.5557,0.3062,0.0702,0.3676,0.4819,0.0723,0.1889,0.235,-0.1163,-0.1187,0.0445,-0.1882,0.2709,0.182,-0.0505,0.0662,0.561,0.1397,0.0436'
_aflow_Strukturbericht 'None'
_aflow_Pearson 'hR92'

_symmetry_space_group_name_H-M "R -3 2/c (hexagonal axes)"
_symmetry_Int_Tables_number 167
 
_cell_length_a    25.84700
_cell_length_b    25.84700
_cell_length_c    8.77100
_cell_angle_alpha 90.00000
_cell_angle_beta  90.00000
_cell_angle_gamma 120.00000
 
loop_
_space_group_symop_id
_space_group_symop_operation_xyz
1 x,y,z
2 -y,x-y,z
3 -x+y,-x,z
4 y,x,-z+1/2
5 -x,-x+y,-z+1/2
6 x-y,-y,-z+1/2
7 -x,-y,-z
8 y,-x+y,-z
9 x-y,x,-z
10 -y,-x,z+1/2
11 x,x-y,z+1/2
12 -x+y,y,z+1/2
13 x+1/3,y+2/3,z+2/3
14 -y+1/3,x-y+2/3,z+2/3
15 -x+y+1/3,-x+2/3,z+2/3
16 y+1/3,x+2/3,-z+1/6
17 -x+1/3,-x+y+2/3,-z+1/6
18 x-y+1/3,-y+2/3,-z+1/6
19 -x+1/3,-y+2/3,-z+2/3
20 y+1/3,-x+y+2/3,-z+2/3
21 x-y+1/3,x+2/3,-z+2/3
22 -y+1/3,-x+2/3,z+1/6
23 x+1/3,x-y+2/3,z+1/6
24 -x+y+1/3,y+2/3,z+1/6
25 x+2/3,y+1/3,z+1/3
26 -y+2/3,x-y+1/3,z+1/3
27 -x+y+2/3,-x+1/3,z+1/3
28 y+2/3,x+1/3,-z+5/6
29 -x+2/3,-x+y+1/3,-z+5/6
30 x-y+2/3,-y+1/3,-z+5/6
31 -x+2/3,-y+1/3,-z+1/3
32 y+2/3,-x+y+1/3,-z+1/3
33 x-y+2/3,x+1/3,-z+1/3
34 -y+2/3,-x+1/3,z+5/6
35 x+2/3,x-y+1/3,z+5/6
36 -x+y+2/3,y+1/3,z+5/6
 
loop_
_atom_site_label
_atom_site_type_symbol
_atom_site_symmetry_multiplicity
_atom_site_Wyckoff_label
_atom_site_fract_x
_atom_site_fract_y
_atom_site_fract_z
_atom_site_occupancy
Re1 Re 6 b 0.00000 0.00000 0.00000 1.00000
Re2 Re 18 e 0.06100 0.00000 0.25000 1.00000
Re3 Re 18 e 0.44460 0.00000 0.25000 1.00000
Zr1 Zr 18 e 0.69430 0.00000 0.25000 1.00000
Re4 Re 36 f 0.05820 0.17780 0.24800 1.00000
Re5 Re 36 f 0.23420 0.17540 0.24770 1.00000
Re6 Re 36 f 0.23500 0.11630 0.00000 1.00000
Zr2 Zr 36 f 0.00210 0.23060 0.04240 1.00000
Zr3 Zr 36 f 0.11610 0.11640 0.06590 1.00000
Zr4 Zr 36 f 0.31290 0.10840 0.24810 1.00000
