# CIF file 
data_findsym-output
_audit_creation_method FINDSYM

_chemical_name_mineral 'Dodecatungstophosphoric acid hexahydrate'
_chemical_formula_sum 'H27 O52 P W12'

loop_
_publ_author_name
 'G. M. Brown'
 'M.-R. {Noe-Spirlet}'
 'W. R. Busing'
 'H. A. Levy'
_journal_name_full_name
;
 Acta Crystallographica Section B: Structural Science
;
_journal_volume 33
_journal_year 1977
_journal_page_first 1038
_journal_page_last 1046
_publ_Section_title
;
 Dodecatungstophosphoric acid hexahydrate, (H$_{5}$O$_{2}$$^{+}$)$_{3}$(PW$_{12}$O$_{40}$$^{3-}$). The true structure of Keggin\'s `pentahydrate\' from single-crystal X-ray and neutron diffraction data
;

_aflow_title 'Dodecatungstophosphoric Acid Hexahydrate [H$_{3}$PW$_{12}$O$_{40}$$\cdot$6H$_{2}$O] Structure'
_aflow_proto 'A27B52CD12_cP184_224_dl_eh3k_a_k'
_aflow_params 'a,x_{3},x_{4},x_{5},z_{5},x_{6},z_{6},x_{7},z_{7},x_{8},z_{8},x_{9},y_{9},z_{9}'
_aflow_params_values '12.506,0.32273,0.34752,0.65683,-0.00684,0.37155,0.52447,0.55441,0.23276,0.45688,0.25822,0.24525,0.61259,0.68288'
_aflow_Strukturbericht 'None'
_aflow_Pearson 'cP184'

_symmetry_space_group_name_H-M "P 42/n -3 2/m (origin choice 2)"
_symmetry_Int_Tables_number 224
 
_cell_length_a    12.50600
_cell_length_b    12.50600
_cell_length_c    12.50600
_cell_angle_alpha 90.00000
_cell_angle_beta  90.00000
_cell_angle_gamma 90.00000
 
loop_
_space_group_symop_id
_space_group_symop_operation_xyz
1 x,y,z
2 x,-y+1/2,-z+1/2
3 -x+1/2,y,-z+1/2
4 -x+1/2,-y+1/2,z
5 y,z,x
6 y,-z+1/2,-x+1/2
7 -y+1/2,z,-x+1/2
8 -y+1/2,-z+1/2,x
9 z,x,y
10 z,-x+1/2,-y+1/2
11 -z+1/2,x,-y+1/2
12 -z+1/2,-x+1/2,y
13 -y,-x,-z
14 -y,x+1/2,z+1/2
15 y+1/2,-x,z+1/2
16 y+1/2,x+1/2,-z
17 -x,-z,-y
18 -x,z+1/2,y+1/2
19 x+1/2,-z,y+1/2
20 x+1/2,z+1/2,-y
21 -z,-y,-x
22 -z,y+1/2,x+1/2
23 z+1/2,-y,x+1/2
24 z+1/2,y+1/2,-x
25 -x,-y,-z
26 -x,y+1/2,z+1/2
27 x+1/2,-y,z+1/2
28 x+1/2,y+1/2,-z
29 -y,-z,-x
30 -y,z+1/2,x+1/2
31 y+1/2,-z,x+1/2
32 y+1/2,z+1/2,-x
33 -z,-x,-y
34 -z,x+1/2,y+1/2
35 z+1/2,-x,y+1/2
36 z+1/2,x+1/2,-y
37 y,x,z
38 y,-x+1/2,-z+1/2
39 -y+1/2,x,-z+1/2
40 -y+1/2,-x+1/2,z
41 x,z,y
42 x,-z+1/2,-y+1/2
43 -x+1/2,z,-y+1/2
44 -x+1/2,-z+1/2,y
45 z,y,x
46 z,-y+1/2,-x+1/2
47 -z+1/2,y,-x+1/2
48 -z+1/2,-y+1/2,x
 
loop_
_atom_site_label
_atom_site_type_symbol
_atom_site_symmetry_multiplicity
_atom_site_Wyckoff_label
_atom_site_fract_x
_atom_site_fract_y
_atom_site_fract_z
_atom_site_occupancy
P1 P 2 a 0.25000 0.25000 0.25000 1.00000
H1 H 6 d 0.25000 0.75000 0.75000 1.00000
O1 O 8 e 0.32273 0.32273 0.32273 1.00000
O2 O 24 h 0.34752 0.25000 0.75000 0.50000
O3 O 24 k 0.65683 0.65683 -0.00684 1.00000
O4 O 24 k 0.37155 0.37155 0.52447 1.00000
O5 O 24 k 0.55441 0.55441 0.23276 1.00000
W1 W 24 k 0.45688 0.45688 0.25822 1.00000
H2 H 48 l 0.24525 0.61259 0.68288 0.50000