# CIF file 
data_findsym-output
_audit_creation_method FINDSYM

_chemical_name_mineral 'Ag2H12N4O4S'
_chemical_formula_sum 'Ag2 H12 N4 O4 S'

loop_
_publ_author_name
 'U. Zachwieja'
 'H. Jacobs'
_journal_name_full_name
;
 Zeitschrift f{\"u}r Kristallographie - Crystalline Materials
;
_journal_volume 201
_journal_year 1992
_journal_page_first 207
_journal_page_last 212
_publ_Section_title
;
 Redetermination of the crystal structure of diammine silver(I)-sulfate, [Ag(NH$_{3}$)$_{2}$]$_{2}$SO$_{4}$
;

_aflow_title 'Ag$_{2}$SO$_{4}$$\cdot$4NH$_{3}$ ($H4_{17}$) Structure'
_aflow_proto 'A2B12C4D4E_tP46_114_d_3e_e_e_a'
_aflow_params 'a,c/a,z_{2},x_{3},y_{3},z_{3},x_{4},y_{4},z_{4},x_{5},y_{5},z_{5},x_{6},y_{6},z_{6},x_{7},y_{7},z_{7}'
_aflow_params_values '8.442,0.757995735608,0.49194,0.082,0.21,0.416,0.183,0.287,0.52,0.063,0.227,0.603,0.1081,0.275,0.5083,0.1301,0.0595,0.1309'
_aflow_Strukturbericht '$H4_{17}$'
_aflow_Pearson 'tP46'

_symmetry_space_group_name_H-M "P -4 21 c"
_symmetry_Int_Tables_number 114
 
_cell_length_a    8.44200
_cell_length_b    8.44200
_cell_length_c    6.39900
_cell_angle_alpha 90.00000
_cell_angle_beta  90.00000
_cell_angle_gamma 90.00000
 
loop_
_space_group_symop_id
_space_group_symop_operation_xyz
1 x,y,z
2 x+1/2,-y+1/2,-z+1/2
3 -x+1/2,y+1/2,-z+1/2
4 -x,-y,z
5 y+1/2,x+1/2,z+1/2
6 y,-x,-z
7 -y,x,-z
8 -y+1/2,-x+1/2,z+1/2
 
loop_
_atom_site_label
_atom_site_type_symbol
_atom_site_symmetry_multiplicity
_atom_site_Wyckoff_label
_atom_site_fract_x
_atom_site_fract_y
_atom_site_fract_z
_atom_site_occupancy
S1 S 2 a 0.00000 0.00000 0.00000 1.00000
Ag1 Ag 4 d 0.00000 0.50000 0.49194 1.00000
H1 H 8 e 0.08200 0.21000 0.41600 1.00000
H2 H 8 e 0.18300 0.28700 0.52000 1.00000
H3 H 8 e 0.06300 0.22700 0.60300 1.00000
N1 N 8 e 0.10810 0.27500 0.50830 1.00000
O1 O 8 e 0.13010 0.05950 0.13090 1.00000