# CIF file 
data_findsym-output
_audit_creation_method FINDSYM

_chemical_name_mineral 'B2Co2O5'
_chemical_formula_sum 'B2 Co2 O5'

loop_
_publ_author_name
 'S. V. Berger'
_journal_name_full_name
;
 Acta Chemica Scandinavica
;
_journal_volume 4
_journal_year 1950
_journal_page_first 1054
_journal_page_last 1065
_publ_Section_title
;
 The Crystal Structure of Cobaltpyroborate
;

_aflow_title 'Co$_{2}$B$_{2}$O$_{5}$ Structure'
_aflow_proto 'A2B2C5_aP18_2_2i_2i_5i'
_aflow_params 'a,b/a,c/a,\alpha,\beta,\gamma,x_{1},y_{1},z_{1},x_{2},y_{2},z_{2},x_{3},y_{3},z_{3},x_{4},y_{4},z_{4},x_{5},y_{5},z_{5},x_{6},y_{6},z_{6},x_{7},y_{7},z_{7},x_{8},y_{8},z_{8},x_{9},y_{9},z_{9}'
_aflow_params_values '3.16,1.87974683544,2.83227848101,103.9,91.0,92.0,0.67,0.67,0.34,0.36,0.88,0.17,0.743,0.213,0.36,0.245,0.374,0.1,0.244,0.709,0.054,0.208,0.092,0.19,0.735,0.476,0.249,0.562,0.842,0.288,0.77,0.698,0.489'
_aflow_Strukturbericht 'None'
_aflow_Pearson 'aP18'

_symmetry_space_group_name_H-M "P -1"
_symmetry_Int_Tables_number 2
 
_cell_length_a    3.16000
_cell_length_b    5.94000
_cell_length_c    8.95000
_cell_angle_alpha 103.90000
_cell_angle_beta  91.00000
_cell_angle_gamma 92.00000
 
loop_
_space_group_symop_id
_space_group_symop_operation_xyz
1 x,y,z
2 -x,-y,-z
 
loop_
_atom_site_label
_atom_site_type_symbol
_atom_site_symmetry_multiplicity
_atom_site_Wyckoff_label
_atom_site_fract_x
_atom_site_fract_y
_atom_site_fract_z
_atom_site_occupancy
B1 B 2 i 0.67000 0.67000 0.34000 1.00000
B2 B 2 i 0.36000 0.88000 0.17000 1.00000
Co1 Co 2 i 0.74300 0.21300 0.36000 1.00000
Co2 Co 2 i 0.24500 0.37400 0.10000 1.00000
O1 O 2 i 0.24400 0.70900 0.05400 1.00000
O2 O 2 i 0.20800 0.09200 0.19000 1.00000
O3 O 2 i 0.73500 0.47600 0.24900 1.00000
O4 O 2 i 0.56200 0.84200 0.28800 1.00000
O5 O 2 i 0.77000 0.69800 0.48900 1.00000