# CIF file 
data_findsym-output
_audit_creation_method FINDSYM

_chemical_name_mineral 'Bassanite'
_chemical_formula_sum 'Ca2 H2 O9 S2'

loop_
_publ_author_name
 'W. Abriel'
 'R. Nesper'
_journal_name_full_name
;
 Zeitschrift f{\"u}r Kristallographie - Crystalline Materials
;
_journal_volume 205
_journal_year 1993
_journal_page_first 99
_journal_page_last 113
_publ_Section_title
;
 Bestimmung der Kristallstruktur von CaSO$_{4}$(H$_{2}$O)$_{0.5}$ mit R\"{o}ntgenbeugungsmethoden und mit Potentialprofil-Rechnungen
;

# Found in The monoclinic $I2$ structure of bassanite, calcium sulphate hemihydrate (CaSO$_{4}$$\cdot$0.5H$_{2}$O), 2001

_aflow_title 'Bassanite [CaSO$_{4}$(H$_{2}$O)$_{0.5}$, $H4_{7}$] Structure'
_aflow_proto 'A2B2C9D2_mC90_5_ab2c_3c_b13c_3c'
_aflow_params 'a,b/a,c/a,\beta,y_{1},y_{2},y_{3},x_{4},y_{4},z_{4},x_{5},y_{5},z_{5},x_{6},y_{6},z_{6},x_{7},y_{7},z_{7},x_{8},y_{8},z_{8},x_{9},y_{9},z_{9},x_{10},y_{10},z_{10},x_{11},y_{11},z_{11},x_{12},y_{12},z_{12},x_{13},y_{13},z_{13},x_{14},y_{14},z_{14},x_{15},y_{15},z_{15},x_{16},y_{16},z_{16},x_{17},y_{17},z_{17},x_{18},y_{18},z_{18},x_{19},y_{19},z_{19},x_{20},y_{20},z_{20},x_{21},y_{21},z_{21},x_{22},y_{22},z_{22},x_{23},y_{23},z_{23},x_{24},y_{24},z_{24}'
_aflow_params_values '17.45812,0.39701869388,0.688934432803,133.36555,0.4553,-0.0447,0.5985,0.1667,0.2724,0.8943,0.3333,0.2724,0.6057,0.5,0.171,0.572,0.333,0.307,0.783,0.833,0.023,0.712,0.5173,0.226,0.8882,0.0173,0.226,0.3882,0.8507,0.4435,0.5522,0.3507,0.4435,0.0522,0.184,0.3306,0.1115,0.684,0.3306,0.6115,0.6556,0.1185,-0.0982,0.1556,0.1185,0.4018,-0.0111,0.3102,0.8065,0.4889,0.3102,0.3065,0.3222,0.0714,0.7583,0.8222,0.0714,0.2583,0.3333,0.4508,0.784,0.0833,0.2752,0.3585,0.25,0.4496,0.25,0.4167,0.2752,0.1415'
_aflow_Strukturbericht '$H4_{7}$'
_aflow_Pearson 'mC90'

_symmetry_space_group_name_H-M "C 1 2 1"
_symmetry_Int_Tables_number 5
 
_cell_length_a    17.45812
_cell_length_b    6.93120
_cell_length_c    12.02750
_cell_angle_alpha 90.00000
_cell_angle_beta  133.36555
_cell_angle_gamma 90.00000
 
loop_
_space_group_symop_id
_space_group_symop_operation_xyz
1 x,y,z
2 -x,y,-z
3 x+1/2,y+1/2,z
4 -x+1/2,y+1/2,-z
 
loop_
_atom_site_label
_atom_site_type_symbol
_atom_site_symmetry_multiplicity
_atom_site_Wyckoff_label
_atom_site_fract_x
_atom_site_fract_y
_atom_site_fract_z
_atom_site_occupancy
Ca1 Ca 2 a 0.00000 0.45530 0.00000 1.00000
Ca2 Ca 2 b 0.00000 -0.04470 0.50000 1.00000
O1 O 2 b 0.00000 0.59850 0.50000 1.00000
Ca3 Ca 4 c 0.16670 0.27240 0.89430 1.00000
Ca4 Ca 4 c 0.33330 0.27240 0.60570 1.00000
H1 H 4 c 0.50000 0.17100 0.57200 1.00000
H2 H 4 c 0.33300 0.30700 0.78300 1.00000
H3 H 4 c 0.83300 0.02300 0.71200 1.00000
O2 O 4 c 0.51730 0.22600 0.88820 1.00000
O3 O 4 c 0.01730 0.22600 0.38820 1.00000
O4 O 4 c 0.85070 0.44350 0.55220 1.00000
O5 O 4 c 0.35070 0.44350 0.05220 1.00000
O6 O 4 c 0.18400 0.33060 0.11150 1.00000
O7 O 4 c 0.68400 0.33060 0.61150 1.00000
O8 O 4 c 0.65560 0.11850 -0.09820 1.00000
O9 O 4 c 0.15560 0.11850 0.40180 1.00000
O10 O 4 c -0.01110 0.31020 0.80650 1.00000
O11 O 4 c 0.48890 0.31020 0.30650 1.00000
O12 O 4 c 0.32220 0.07140 0.75830 1.00000
O13 O 4 c 0.82220 0.07140 0.25830 1.00000
O14 O 4 c 0.33330 0.45080 0.78400 1.00000
S1 S 4 c 0.08330 0.27520 0.35850 1.00000
S2 S 4 c 0.25000 0.44960 0.25000 1.00000
S3 S 4 c 0.41670 0.27520 0.14150 1.00000