# CIF file 
data_findsym-output
_audit_creation_method FINDSYM

_chemical_name_mineral 'Maghemite or $\gamma$-corundum'
_chemical_formula_sum 'Fe2 O3'

loop_
_publ_author_name
 'J. Thewlis'
_journal_name_full_name
;
 Philosophical Magazine
;
_journal_volume 12
_journal_year 1931
_journal_page_first 1089
_journal_page_last 1106
_publ_Section_title
;
 The structure of ferromagnetic ferric oxide
;

# Found in Strukturbericht Band II 1928-1932, 1937

_aflow_title 'Maghemite ($\gamma$-Fe$_{2}$O$_{3}$, $D5_{7}$) Structure'
_aflow_proto 'A2B3_cP60_212_bcd_ace'
_aflow_params 'a,x_{3},x_{4},y_{5},x_{6},y_{6},z_{6}'
_aflow_params_values '8.4,0.0,0.871,0.375,0.378,0.129,0.629'
_aflow_Strukturbericht '$D5_{7}$'
_aflow_Pearson 'cP60'

_symmetry_space_group_name_H-M "P 43 3 2"
_symmetry_Int_Tables_number 212
 
_cell_length_a    8.40000
_cell_length_b    8.40000
_cell_length_c    8.40000
_cell_angle_alpha 90.00000
_cell_angle_beta  90.00000
_cell_angle_gamma 90.00000
 
loop_
_space_group_symop_id
_space_group_symop_operation_xyz
1 x,y,z
2 x+1/2,-y+1/2,-z
3 -x,y+1/2,-z+1/2
4 -x+1/2,-y,z+1/2
5 y,z,x
6 y+1/2,-z+1/2,-x
7 -y,z+1/2,-x+1/2
8 -y+1/2,-z,x+1/2
9 z,x,y
10 z+1/2,-x+1/2,-y
11 -z,x+1/2,-y+1/2
12 -z+1/2,-x,y+1/2
13 -y+1/4,-x+1/4,-z+1/4
14 -y+3/4,x+1/4,z+3/4
15 y+3/4,-x+3/4,z+1/4
16 y+1/4,x+3/4,-z+3/4
17 -x+1/4,-z+1/4,-y+1/4
18 -x+3/4,z+1/4,y+3/4
19 x+3/4,-z+3/4,y+1/4
20 x+1/4,z+3/4,-y+3/4
21 -z+1/4,-y+1/4,-x+1/4
22 -z+3/4,y+1/4,x+3/4
23 z+3/4,-y+3/4,x+1/4
24 z+1/4,y+3/4,-x+3/4
 
loop_
_atom_site_label
_atom_site_type_symbol
_atom_site_symmetry_multiplicity
_atom_site_Wyckoff_label
_atom_site_fract_x
_atom_site_fract_y
_atom_site_fract_z
_atom_site_occupancy
O1 O 4 a 0.12500 0.12500 0.12500 1.00000
Fe1 Fe 4 b 0.62500 0.62500 0.62500 1.00000
Fe2 Fe 8 c 0.00000 0.00000 0.00000 1.00000
O2 O 8 c 0.87100 0.87100 0.87100 1.00000
Fe3 Fe 12 d 0.12500 0.37500 0.87500 1.00000
O3 O 24 e 0.37800 0.12900 0.62900 1.00000