# CIF file 
data_findsym-output
_audit_creation_method FINDSYM

_chemical_name_mineral 'Al2Zr3'
_chemical_formula_sum 'Al2 Zr3'

loop_
_publ_author_name
 'C. G. Wilson'
 'F. J. Spooner'
_journal_name_full_name
;
 Acta Cristallographica
;
_journal_volume 13
_journal_year 1960
_journal_page_first 358
_journal_page_last 359
_publ_Section_title
;
 The Crystal Structure of Zr$_{3}$Al$_{2}$
;

# Found in Crystal Structure Investigations on the Zr-Al and Hf-Al Systems, 1962

_aflow_title 'Zr$_{3}$Al$_{2}$ Structure'
_aflow_proto 'A2B3_tP20_136_j_dfg'
_aflow_params 'a,c/a,x_{2},x_{3},x_{4},z_{4}'
_aflow_params_values '7.63,0.917169069463,0.34,0.2,0.125,0.21'
_aflow_Strukturbericht 'None'
_aflow_Pearson 'tP20'

_symmetry_space_group_name_H-M "P 42/m 21/n 2/m"
_symmetry_Int_Tables_number 136
 
_cell_length_a    7.63000
_cell_length_b    7.63000
_cell_length_c    6.99800
_cell_angle_alpha 90.00000
_cell_angle_beta  90.00000
_cell_angle_gamma 90.00000
 
loop_
_space_group_symop_id
_space_group_symop_operation_xyz
1 x,y,z
2 x+1/2,-y+1/2,-z+1/2
3 -x+1/2,y+1/2,-z+1/2
4 -x,-y,z
5 -y,-x,-z
6 -y+1/2,x+1/2,z+1/2
7 y+1/2,-x+1/2,z+1/2
8 y,x,-z
9 -x,-y,-z
10 -x+1/2,y+1/2,z+1/2
11 x+1/2,-y+1/2,z+1/2
12 x,y,-z
13 y,x,z
14 y+1/2,-x+1/2,-z+1/2
15 -y+1/2,x+1/2,-z+1/2
16 -y,-x,z
 
loop_
_atom_site_label
_atom_site_type_symbol
_atom_site_symmetry_multiplicity
_atom_site_Wyckoff_label
_atom_site_fract_x
_atom_site_fract_y
_atom_site_fract_z
_atom_site_occupancy
Zr1 Zr 4 d 0.00000 0.50000 0.25000 1.00000
Zr2 Zr 4 f 0.34000 0.34000 0.00000 1.00000
Zr3 Zr 4 g 0.20000 0.80000 0.00000 1.00000
Al1 Al 8 j 0.12500 0.12500 0.21000 1.00000