# CIF file 
data_findsym-output
_audit_creation_method FINDSYM

_chemical_name_mineral 'Na2O3S'
_chemical_formula_sum 'Na2 O3 S'

loop_
_publ_author_name
 'W. H. Zachariasen'
 'H. E. Buckley'
_journal_name_full_name
;
 Physical Review
;
_journal_volume 37
_journal_year 1931
_journal_page_first 1295
_journal_page_last 1305
_publ_Section_title
;
 The Crystal Lattice of Anhydrous Sodium Sulphite, Na$_{2}$SO$_{3}$
;

_aflow_title 'Na$_{2}$SO$_{3}$ ($G3_{2}$) Structure'
_aflow_proto 'A2B3C_hP12_147_abd_g_d'
_aflow_params 'a,c/a,z_{3},z_{4},x_{5},y_{5},z_{5}'
_aflow_params_values '5.441,1.12718250322,0.67,0.17,0.14,0.4,0.25'
_aflow_Strukturbericht '$G3_{2}$'
_aflow_Pearson 'hP12'

_symmetry_space_group_name_H-M "P -3"
_symmetry_Int_Tables_number 147
 
_cell_length_a    5.44100
_cell_length_b    5.44100
_cell_length_c    6.13300
_cell_angle_alpha 90.00000
_cell_angle_beta  90.00000
_cell_angle_gamma 120.00000
 
loop_
_space_group_symop_id
_space_group_symop_operation_xyz
1 x,y,z
2 -y,x-y,z
3 -x+y,-x,z
4 -x,-y,-z
5 y,-x+y,-z
6 x-y,x,-z
 
loop_
_atom_site_label
_atom_site_type_symbol
_atom_site_symmetry_multiplicity
_atom_site_Wyckoff_label
_atom_site_fract_x
_atom_site_fract_y
_atom_site_fract_z
_atom_site_occupancy
Na1 Na 1 a 0.00000 0.00000 0.00000 1.00000
Na2 Na 1 b 0.00000 0.00000 0.50000 1.00000
Na3 Na 2 d 0.33333 0.66667 0.67000 1.00000
S1 S 2 d 0.33333 0.66667 0.17000 1.00000
O1 O 6 g 0.14000 0.40000 0.25000 1.00000