# CIF file 
data_findsym-output
_audit_creation_method FINDSYM

_chemical_name_mineral 'Orpiment'
_chemical_formula_sum 'As2 S3'

loop_
_publ_author_name
 'N. Morimoto'
_journal_name_full_name
;
 Mineralogical Journal
;
_journal_volume 1
_journal_year 1954
_journal_page_first 160
_journal_page_last 169
_publ_Section_title
;
 The Crystal Structure of Orpiment (As$_{2}$S$_{3}$) Refined
;

_aflow_title 'Orpiment (As$_{2}$S$_{3}$, $D5_{f}$) Structure'
_aflow_proto 'A2B3_mP20_14_2e_3e'
_aflow_params 'a,b/a,c/a,\beta,x_{1},y_{1},z_{1},x_{2},y_{2},z_{2},x_{3},y_{3},z_{3},x_{4},y_{4},z_{4},x_{5},y_{5},z_{5}'
_aflow_params_values '4.22,2.26777251185,2.88570616114,109.77475,0.124,0.19,0.267,0.841,0.323,0.484,0.895,0.12,0.395,0.342,0.397,0.355,0.715,0.293,0.125'
_aflow_Strukturbericht '$D5_{f}$'
_aflow_Pearson 'mP20'

_symmetry_space_group_name_H-M "P 1 21/c 1"
_symmetry_Int_Tables_number 14
 
_cell_length_a    4.22000
_cell_length_b    9.57000
_cell_length_c    12.17768
_cell_angle_alpha 90.00000
_cell_angle_beta  109.77475
_cell_angle_gamma 90.00000
 
loop_
_space_group_symop_id
_space_group_symop_operation_xyz
1 x,y,z
2 -x,y+1/2,-z+1/2
3 -x,-y,-z
4 x,-y+1/2,z+1/2
 
loop_
_atom_site_label
_atom_site_type_symbol
_atom_site_symmetry_multiplicity
_atom_site_Wyckoff_label
_atom_site_fract_x
_atom_site_fract_y
_atom_site_fract_z
_atom_site_occupancy
As1 As 4 e 0.12400 0.19000 0.26700 1.00000
As2 As 4 e 0.84100 0.32300 0.48400 1.00000
S1 S 4 e 0.89500 0.12000 0.39500 1.00000
S2 S 4 e 0.34200 0.39700 0.35500 1.00000
S3 S 4 e 0.71500 0.29300 0.12500 1.00000