# CIF file 
data_findsym-output
_audit_creation_method FINDSYM

_chemical_name_mineral 'Ga2O3'
_chemical_formula_sum 'Ga2 O3'

loop_
_publ_author_name
 'J. {\AA}hman'
 'G. Svensson'
 'J. Albertsson'
_journal_name_full_name
;
 Acta Crystallographica Section C: Structural Chemistry
;
_journal_volume 52
_journal_year 1996
_journal_page_first 1336
_journal_page_last 1338
_publ_Section_title
;
 A Reinvestigation of $\beta$-Gallium Oxide
;

_aflow_title '$\beta$-Ga$_{2}$O$_{3}$ Structure'
_aflow_proto 'A2B3_mC20_12_2i_3i'
_aflow_params 'a,b/a,c/a,\beta,x_{1},z_{1},x_{2},z_{2},x_{3},z_{3},x_{4},z_{4},x_{5},z_{5}'
_aflow_params_values '12.214,0.248657278533,0.474709349926,103.83,0.0905,0.7946,0.65866,0.31402,0.1645,0.1098,0.1733,0.5632,0.4959,0.2566'
_aflow_Strukturbericht 'None'
_aflow_Pearson 'mC20'

_symmetry_space_group_name_H-M "C 1 2/m 1"
_symmetry_Int_Tables_number 12
 
_cell_length_a    12.21400
_cell_length_b    3.03710
_cell_length_c    5.79810
_cell_angle_alpha 90.00000
_cell_angle_beta  103.83000
_cell_angle_gamma 90.00000
 
loop_
_space_group_symop_id
_space_group_symop_operation_xyz
1 x,y,z
2 -x,y,-z
3 -x,-y,-z
4 x,-y,z
5 x+1/2,y+1/2,z
6 -x+1/2,y+1/2,-z
7 -x+1/2,-y+1/2,-z
8 x+1/2,-y+1/2,z
 
loop_
_atom_site_label
_atom_site_type_symbol
_atom_site_symmetry_multiplicity
_atom_site_Wyckoff_label
_atom_site_fract_x
_atom_site_fract_y
_atom_site_fract_z
_atom_site_occupancy
Ga1 Ga 4 i 0.09050 0.00000 0.79460 1.00000
Ga2 Ga 4 i 0.65866 0.00000 0.31402 1.00000
O1 O 4 i 0.16450 0.00000 0.10980 1.00000
O2 O 4 i 0.17330 0.00000 0.56320 1.00000
O3 O 4 i 0.49590 0.00000 0.25660 1.00000