# CIF file 
data_findsym-output
_audit_creation_method FINDSYM

_chemical_name_mineral 'Pt2Sn3'
_chemical_formula_sum 'Pt2 Sn3'

loop_
_publ_author_name
 'K. Schubert'
 'H. Pfisterer'
_journal_name_full_name
;
 Zeitschrift fur Metallkunde
;
_journal_volume 40
_journal_year 1949
_journal_page_first 405
_journal_page_last 405
_publ_Section_title
;
 Kristallstruktur von Pt$_{2}$Sn$_{3}$
;

# Found in A Handbook of Lattice Spacings and Structures of Metals and Alloys, {N.~R.~C. No. 4303}, 1958

_aflow_title 'Pt$_{2}$Sn$_{3}$ ($D5_{b}$) Structure'
_aflow_proto 'A2B3_hP10_194_f_bf'
_aflow_params 'a,c/a,z_{2},z_{3}'
_aflow_params_values '4.36079,2.97196838188,0.143,-0.07'
_aflow_Strukturbericht '$D5_{b}$'
_aflow_Pearson 'hP10'

_symmetry_space_group_name_H-M "P 63/m 2/m 2/c"
_symmetry_Int_Tables_number 194
 
_cell_length_a    4.36079
_cell_length_b    4.36079
_cell_length_c    12.96013
_cell_angle_alpha 90.00000
_cell_angle_beta  90.00000
_cell_angle_gamma 120.00000
 
loop_
_space_group_symop_id
_space_group_symop_operation_xyz
1 x,y,z
2 x-y,x,z+1/2
3 -y,x-y,z
4 -x,-y,z+1/2
5 -x+y,-x,z
6 y,-x+y,z+1/2
7 x-y,-y,-z
8 x,x-y,-z+1/2
9 y,x,-z
10 -x+y,y,-z+1/2
11 -x,-x+y,-z
12 -y,-x,-z+1/2
13 -x,-y,-z
14 -x+y,-x,-z+1/2
15 y,-x+y,-z
16 x,y,-z+1/2
17 x-y,x,-z
18 -y,x-y,-z+1/2
19 -x+y,y,z
20 -x,-x+y,z+1/2
21 -y,-x,z
22 x-y,-y,z+1/2
23 x,x-y,z
24 y,x,z+1/2
 
loop_
_atom_site_label
_atom_site_type_symbol
_atom_site_symmetry_multiplicity
_atom_site_Wyckoff_label
_atom_site_fract_x
_atom_site_fract_y
_atom_site_fract_z
_atom_site_occupancy
Sn1 Sn 2 b 0.00000 0.00000 0.25000 1.00000
Pt1 Pt 4 f 0.33333 0.66667 0.14300 1.00000
Sn2 Sn 4 f 0.33333 0.66667 -0.07000 1.00000
