# CIF file 
data_findsym-output
_audit_creation_method FINDSYM

_chemical_name_mineral 'Nb2Pd3Se8'
_chemical_formula_sum 'Nb2 Pd3 Se8'

loop_
_publ_author_name
 'D. A. Keszler'
 'J. A. Ibers'
_journal_name_full_name
;
 Journal of Solid State Chemistry
;
_journal_volume 52
_journal_year 1984
_journal_page_first 73
_journal_page_last 79
_publ_Section_title
;
 A new structural type in ternary chalcogenide chemistry: Structure and properties of Nb$_{2}$Pd$_{3}$Se$_{8}$
;

_aflow_title 'Nb$_{2}$Pd$_{3}$Se$_{8}$ Structure'
_aflow_proto 'A2B3C8_oP26_55_h_ag_2g2h'
_aflow_params 'a,b/a,c/a,x_{2},y_{2},x_{3},y_{3},x_{4},y_{4},x_{5},y_{5},x_{6},y_{6},x_{7},y_{7}'
_aflow_params_values '15.074,0.701406395117,0.235305824599,0.21616,0.3812,-0.01109,0.23185,0.15734,0.04391,0.11591,0.21532,0.28335,0.25032,0.11562,0.45742'
_aflow_Strukturbericht 'None'
_aflow_Pearson 'oP26'

_symmetry_space_group_name_H-M "P 21/b 21/a 2/m"
_symmetry_Int_Tables_number 55
 
_cell_length_a    15.07400
_cell_length_b    10.57300
_cell_length_c    3.54700
_cell_angle_alpha 90.00000
_cell_angle_beta  90.00000
_cell_angle_gamma 90.00000
 
loop_
_space_group_symop_id
_space_group_symop_operation_xyz
1 x,y,z
2 x+1/2,-y+1/2,-z
3 -x+1/2,y+1/2,-z
4 -x,-y,z
5 -x,-y,-z
6 -x+1/2,y+1/2,z
7 x+1/2,-y+1/2,z
8 x,y,-z
 
loop_
_atom_site_label
_atom_site_type_symbol
_atom_site_symmetry_multiplicity
_atom_site_Wyckoff_label
_atom_site_fract_x
_atom_site_fract_y
_atom_site_fract_z
_atom_site_occupancy
Pd1 Pd 2 a 0.00000 0.00000 0.00000 1.00000
Pd2 Pd 4 g 0.21616 0.38120 0.00000 1.00000
Se1 Se 4 g -0.01109 0.23185 0.00000 1.00000
Se2 Se 4 g 0.15734 0.04391 0.00000 1.00000
Nb1 Nb 4 h 0.11591 0.21532 0.50000 1.00000
Se3 Se 4 h 0.28335 0.25032 0.50000 1.00000
Se4 Se 4 h 0.11562 0.45742 0.50000 1.00000