# CIF file 
data_findsym-output
_audit_creation_method FINDSYM

_chemical_name_mineral 'Li2O3Pr'
_chemical_formula_sum 'Li2 O3 Pr'

loop_
_publ_author_name
 'Y. Hinatsu'
 'Y. Doi'
_journal_name_full_name
;
 Journal of Alloys and Compounds
;
_journal_volume 418
_journal_year 2006
_journal_page_first 155
_journal_page_last 160
_publ_Section_title
;
 Crystal structures and magnetic properties of alkali-metal lanthanide oxides $A_{2}$$Ln$O$_{3}$ ($A$ = Li, Na; $Ln$ = Ce, Pr, Tb)
;

_aflow_title 'Li$_{2}$PrO$_{3}$ Structure'
_aflow_proto 'A2B3C_oC12_65_h_bh_a'
_aflow_params 'a,b/a,c/a,x_{3},x_{4}'
_aflow_params_values '9.5198,0.467551839324,0.36581650875,0.6556,0.8557'
_aflow_Strukturbericht 'None'
_aflow_Pearson 'oC12'

_symmetry_space_group_name_H-M "C 2/m 2/m 2/m"
_symmetry_Int_Tables_number 65
 
_cell_length_a    9.51980
_cell_length_b    4.45100
_cell_length_c    3.48250
_cell_angle_alpha 90.00000
_cell_angle_beta  90.00000
_cell_angle_gamma 90.00000
 
loop_
_space_group_symop_id
_space_group_symop_operation_xyz
1 x,y,z
2 x,-y,-z
3 -x,y,-z
4 -x,-y,z
5 -x,-y,-z
6 -x,y,z
7 x,-y,z
8 x,y,-z
9 x+1/2,y+1/2,z
10 x+1/2,-y+1/2,-z
11 -x+1/2,y+1/2,-z
12 -x+1/2,-y+1/2,z
13 -x+1/2,-y+1/2,-z
14 -x+1/2,y+1/2,z
15 x+1/2,-y+1/2,z
16 x+1/2,y+1/2,-z
 
loop_
_atom_site_label
_atom_site_type_symbol
_atom_site_symmetry_multiplicity
_atom_site_Wyckoff_label
_atom_site_fract_x
_atom_site_fract_y
_atom_site_fract_z
_atom_site_occupancy
Pr1 Pr 2 a 0.00000 0.00000 0.00000 1.00000
O1 O 2 b 0.50000 0.00000 0.00000 1.00000
Li1 Li 4 h 0.65560 0.00000 0.50000 1.00000
O2 O 4 h 0.85570 0.00000 0.50000 1.00000