# CIF file 
data_findsym-output
_audit_creation_method FINDSYM

_chemical_name_mineral 'Kotoite'
_chemical_formula_sum 'B2 Mg3 O6'

loop_
_publ_author_name
 'S. V. Berger'
_journal_name_full_name
;
 Acta Chemica Scandinavica
;
_journal_volume 3
_journal_year 1949
_journal_page_first 660
_journal_page_last 675
_publ_Section_title
;
 The Crystal Structure of the Isomorphous Orthoborates of Cobalt and Magnesium
;

_aflow_title 'Kotoite (Mg$_{3}$(BO$_{3}$)$_{2}$) Structure'
_aflow_proto 'A2B3C6_oP22_58_g_af_gh'
_aflow_params 'a,b/a,c/a,z_{2},x_{3},y_{3},x_{4},y_{4},x_{5},y_{5},z_{5}'
_aflow_params_values '4.497,1.20035579275,1.8714698688,0.179,0.56,0.25,0.258,0.316,0.705,0.218,0.139'
_aflow_Strukturbericht 'None'
_aflow_Pearson 'oP22'

_symmetry_space_group_name_H-M "P 21/n 21/n 2/m"
_symmetry_Int_Tables_number 58
 
_cell_length_a    4.49700
_cell_length_b    5.39800
_cell_length_c    8.41600
_cell_angle_alpha 90.00000
_cell_angle_beta  90.00000
_cell_angle_gamma 90.00000
 
loop_
_space_group_symop_id
_space_group_symop_operation_xyz
1 x,y,z
2 x+1/2,-y+1/2,-z+1/2
3 -x+1/2,y+1/2,-z+1/2
4 -x,-y,z
5 -x,-y,-z
6 -x+1/2,y+1/2,z+1/2
7 x+1/2,-y+1/2,z+1/2
8 x,y,-z
 
loop_
_atom_site_label
_atom_site_type_symbol
_atom_site_symmetry_multiplicity
_atom_site_Wyckoff_label
_atom_site_fract_x
_atom_site_fract_y
_atom_site_fract_z
_atom_site_occupancy
Mg1 Mg 2 a 0.00000 0.00000 0.00000 1.00000
Mg2 Mg 4 f 0.00000 0.50000 0.17900 1.00000
B1 B 4 g 0.56000 0.25000 0.00000 1.00000
O1 O 4 g 0.25800 0.31600 0.00000 1.00000
O2 O 8 h 0.70500 0.21800 0.13900 1.00000