# CIF file 
data_findsym-output
_audit_creation_method FINDSYM

_chemical_name_mineral 'Eudidymite'
_chemical_formula_sum 'Be2 H4 Na2 O17 Si6'

loop_
_publ_author_name
 'G. {Diego Gatta}'
 'N. Rotiroti'
 'G. J. {McIntyre}'
 'A. Guastoni'
 'F. Nestola'
_journal_name_full_name
;
 American Mineralogist
;
_journal_volume 93
_journal_year 2008
_journal_page_first 1158
_journal_page_last 1165
_publ_Section_title
;
 New insights into the crystal chemistry of epididymite and eudidymite from Malosa, Malawi: A single-crystal neutron diffraction study
;

_aflow_title 'Eudidymite (BeHNaO$_{8}$Si$_{3}$) Structure'
_aflow_proto 'A2B4C2D17E6_mC124_15_f_2f_f_e8f_3f'
_aflow_params 'a,b/a,c/a,\beta,y_{1},x_{2},y_{2},z_{2},x_{3},y_{3},z_{3},x_{4},y_{4},z_{4},x_{5},y_{5},z_{5},x_{6},y_{6},z_{6},x_{7},y_{7},z_{7},x_{8},y_{8},z_{8},x_{9},y_{9},z_{9},x_{10},y_{10},z_{10},x_{11},y_{11},z_{11},x_{12},y_{12},z_{12},x_{13},y_{13},z_{13},x_{14},y_{14},z_{14},x_{15},y_{15},z_{15},x_{16},y_{16},z_{16}'
_aflow_params_values '12.6188,0.584691095825,1.10898025169,103.762,0.17321,0.16817,0.32317,0.4971,0.084,0.4645,0.7449,0.4773,0.0419,0.7486,0.02899,0.34078,-0.07147,0.0727,0.03247,0.62614,0.24036,0.1803,0.1154,0.24045,0.16471,0.57054,0.23677,0.43859,0.24484,0.1548,0.49864,0.05623,0.12854,0.05189,0.87541,0.05237,0.25694,0.43729,0.01209,0.43098,0.74466,0.20415,0.01965,0.64127,0.25166,0.1025,0.86648,0.02964,0.09397,0.36195'
_aflow_Strukturbericht 'None'
_aflow_Pearson 'mC124'

_symmetry_space_group_name_H-M "C 1 2/c 1"
_symmetry_Int_Tables_number 15
 
_cell_length_a    12.61880
_cell_length_b    7.37810
_cell_length_c    13.99400
_cell_angle_alpha 90.00000
_cell_angle_beta  103.76200
_cell_angle_gamma 90.00000
 
loop_
_space_group_symop_id
_space_group_symop_operation_xyz
1 x,y,z
2 -x,y,-z+1/2
3 -x,-y,-z
4 x,-y,z+1/2
5 x+1/2,y+1/2,z
6 -x+1/2,y+1/2,-z+1/2
7 -x+1/2,-y+1/2,-z
8 x+1/2,-y+1/2,z+1/2
 
loop_
_atom_site_label
_atom_site_type_symbol
_atom_site_symmetry_multiplicity
_atom_site_Wyckoff_label
_atom_site_fract_x
_atom_site_fract_y
_atom_site_fract_z
_atom_site_occupancy
O1 O 4 e 0.00000 0.17321 0.25000 1.00000
Be1 Be 8 f 0.16817 0.32317 0.49710 1.00000
H1 H 8 f 0.08400 0.46450 0.74490 1.00000
H2 H 8 f 0.47730 0.04190 0.74860 1.00000
Na1 Na 8 f 0.02899 0.34078 -0.07147 1.00000
O2 O 8 f 0.07270 0.03247 0.62614 1.00000
O3 O 8 f 0.24036 0.18030 0.11540 1.00000
O4 O 8 f 0.24045 0.16471 0.57054 1.00000
O5 O 8 f 0.23677 0.43859 0.24484 1.00000
O6 O 8 f 0.15480 0.49864 0.05623 1.00000
O7 O 8 f 0.12854 0.05189 0.87541 1.00000
O8 O 8 f 0.05237 0.25694 0.43729 1.00000
O9 O 8 f 0.01209 0.43098 0.74466 1.00000
Si1 Si 8 f 0.20415 0.01965 0.64127 1.00000
Si2 Si 8 f 0.25166 0.10250 0.86648 1.00000
Si3 Si 8 f 0.02964 0.09397 0.36195 1.00000
