# CIF file 
data_findsym-output
_audit_creation_method FINDSYM

_chemical_name_mineral 'Thenardite'
_chemical_formula_sum 'Na2 O4 S'

loop_
_publ_author_name
 'A. G. Nord'
_journal_name_full_name
;
 Acta Chemica Scandinavica
;
_journal_volume 27
_journal_year 1973
_journal_page_first 814
_journal_page_last 822
_publ_Section_title
;
 Refinement of the Crystal Structure of Thenardite, Na$_{2}$SO$_{4}$(V)
;

_aflow_title 'Thenardite [Na$_{2}$SO$_{4}$ (V), $H1_{7}$] Structure'
_aflow_proto 'A2B4C_oF56_70_g_h_a'
_aflow_params 'a,b/a,c/a,z_{2},x_{3},y_{3},z_{3}'
_aflow_params_values '5.8596,2.09987029831,1.67537033245,0.4414,-0.0203,0.0572,0.2137'
_aflow_Strukturbericht '$H1_{7}$'
_aflow_Pearson 'oF56'

_symmetry_space_group_name_H-M "F 2/d 2/d 2/d (origin choice 2)"
_symmetry_Int_Tables_number 70
 
_cell_length_a    5.85960
_cell_length_b    12.30440
_cell_length_c    9.81700
_cell_angle_alpha 90.00000
_cell_angle_beta  90.00000
_cell_angle_gamma 90.00000
 
loop_
_space_group_symop_id
_space_group_symop_operation_xyz
1 x,y,z
2 x,-y+3/4,-z+3/4
3 -x+3/4,y,-z+3/4
4 -x+3/4,-y+3/4,z
5 -x,-y,-z
6 -x,y+1/4,z+1/4
7 x+1/4,-y,z+1/4
8 x+1/4,y+1/4,-z
9 x,y+1/2,z+1/2
10 x,-y+1/4,-z+1/4
11 -x+3/4,y+1/2,-z+1/4
12 -x+3/4,-y+1/4,z+1/2
13 -x,-y+1/2,-z+1/2
14 -x,y+3/4,z+3/4
15 x+1/4,-y+1/2,z+3/4
16 x+1/4,y+3/4,-z+1/2
17 x+1/2,y,z+1/2
18 x+1/2,-y+3/4,-z+1/4
19 -x+1/4,y,-z+1/4
20 -x+1/4,-y+3/4,z+1/2
21 -x+1/2,-y,-z+1/2
22 -x+1/2,y+1/4,z+3/4
23 x+3/4,-y,z+3/4
24 x+3/4,y+1/4,-z+1/2
25 x+1/2,y+1/2,z
26 x+1/2,-y+1/4,-z+3/4
27 -x+1/4,y+1/2,-z+3/4
28 -x+1/4,-y+1/4,z
29 -x+1/2,-y+1/2,-z
30 -x+1/2,y+3/4,z+1/4
31 x+3/4,-y+1/2,z+1/4
32 x+3/4,y+3/4,-z
 
loop_
_atom_site_label
_atom_site_type_symbol
_atom_site_symmetry_multiplicity
_atom_site_Wyckoff_label
_atom_site_fract_x
_atom_site_fract_y
_atom_site_fract_z
_atom_site_occupancy
S1 S 8 a 0.12500 0.12500 0.12500 1.00000
Na1 Na 16 g 0.12500 0.12500 0.44140 1.00000
O1 O 32 h -0.02030 0.05720 0.21370 1.00000