# CIF file 
data_findsym-output
_audit_creation_method FINDSYM

_chemical_name_mineral 'Anthophyllite'
_chemical_formula_sum 'Fe2 Mg5 O22 (OH)2 Si8'

loop_
_publ_author_name
 'E. M. Walitzi'
 'F. Walter'
 'K. Ettinger'
_journal_name_full_name
;
 Zeitschrift f{\"u}r Kristallographie - Crystalline Materials
;
_journal_volume 188
_journal_year 1989
_journal_page_first 237
_journal_page_last 244
_publ_Section_title
;
 Verfeinerung der Kristallstruktur von Anthophyllit vom Ochsenkogel/Gleinalpe, \"{O}sterreich
;

# Found in The American Mineralogist Crystal Structure Database, 2003

_aflow_title 'Anthophyllite (Mg$_{5}$Fe$_{2}$Si$_{8}$O$_{22}$(OH)$_{2}$, $S4_{4}$) Structure'
_aflow_proto 'A2B5C22D2E8_oP156_62_d_c2d_2c10d_2c_4d'
_aflow_params 'a,b/a,c/a,x_{1},z_{1},x_{2},z_{2},x_{3},z_{3},x_{4},z_{4},x_{5},z_{5},x_{6},y_{6},z_{6},x_{7},y_{7},z_{7},x_{8},y_{8},z_{8},x_{9},y_{9},z_{9},x_{10},y_{10},z_{10},x_{11},y_{11},z_{11},x_{12},y_{12},z_{12},x_{13},y_{13},z_{13},x_{14},y_{14},z_{14},x_{15},y_{15},z_{15},x_{16},y_{16},z_{16},x_{17},y_{17},z_{17},x_{18},y_{18},z_{18},x_{19},y_{19},z_{19},x_{20},y_{20},z_{20},x_{21},y_{21},z_{21},x_{22},y_{22},z_{22}'
_aflow_params_values '18.544,0.972066436583,0.284836065574,0.1255,0.893,0.7975,0.4595,0.9536,0.778,0.1831,0.5573,0.0697,0.227,0.1239,-0.0094,0.3897,0.1251,0.1634,0.393,0.125,0.0731,0.8196,0.1825,0.1635,0.0599,0.0682,0.1636,0.7275,0.1857,0.0773,0.563,0.0631,0.0772,0.2209,0.1868,-0.0012,0.0743,0.0668,-0.0068,0.7092,0.1973,0.8822,0.3321,0.0504,0.8882,0.0565,0.2003,0.869,0.8288,0.0486,0.8596,0.5504,0.2305,0.8345,0.567,0.0186,0.8336,0.2743,0.2271,-0.0798,0.0637,0.0245,-0.0817,0.7754'
_aflow_Strukturbericht '$S4_{4}$'
_aflow_Pearson 'oP156'

_symmetry_space_group_name_H-M "P 21/n 21/m 21/a"
_symmetry_Int_Tables_number 62
 
_cell_length_a    18.54400
_cell_length_b    18.02600
_cell_length_c    5.28200
_cell_angle_alpha 90.00000
_cell_angle_beta  90.00000
_cell_angle_gamma 90.00000
 
loop_
_space_group_symop_id
_space_group_symop_operation_xyz
1 x,y,z
2 x+1/2,-y+1/2,-z+1/2
3 -x,y+1/2,-z
4 -x+1/2,-y,z+1/2
5 -x,-y,-z
6 -x+1/2,y+1/2,z+1/2
7 x,-y+1/2,z
8 x+1/2,y,-z+1/2
 
loop_
_atom_site_label
_atom_site_type_symbol
_atom_site_symmetry_multiplicity
_atom_site_Wyckoff_label
_atom_site_fract_x
_atom_site_fract_y
_atom_site_fract_z
_atom_site_occupancy
Mg1 Mg 4 c 0.12550 0.25000 0.89300 1.00000
O1 O 4 c 0.79750 0.25000 0.45950 1.00000
O2 O 4 c 0.95360 0.25000 0.77800 1.00000
OH1 OH 4 c 0.18310 0.25000 0.55730 1.00000
OH2 OH 4 c 0.06970 0.25000 0.22700 1.00000
Fe1 Fe 8 d 0.12390 -0.00940 0.38970 1.00000
Mg2 Mg 8 d 0.12510 0.16340 0.39300 1.00000
Mg3 Mg 8 d 0.12500 0.07310 0.81960 1.00000
O3 O 8 d 0.18250 0.16350 0.05990 1.00000
O4 O 8 d 0.06820 0.16360 0.72750 1.00000
O5 O 8 d 0.18570 0.07730 0.56300 1.00000
O6 O 8 d 0.06310 0.07720 0.22090 1.00000
O7 O 8 d 0.18680 -0.00120 0.07430 1.00000
O8 O 8 d 0.06680 -0.00680 0.70920 1.00000
O9 O 8 d 0.19730 0.88220 0.33210 1.00000
O10 O 8 d 0.05040 0.88820 0.05650 1.00000
O11 O 8 d 0.20030 0.86900 0.82880 1.00000
O12 O 8 d 0.04860 0.85960 0.55040 1.00000
Si1 Si 8 d 0.23050 0.83450 0.56700 1.00000
Si2 Si 8 d 0.01860 0.83360 0.27430 1.00000
Si3 Si 8 d 0.22710 -0.07980 0.06370 1.00000
Si4 Si 8 d 0.02450 -0.08170 0.77540 1.00000