# CIF file 
data_findsym-output
_audit_creation_method FINDSYM

_chemical_name_mineral 'Gd2O5Si'
_chemical_formula_sum 'Gd2 O5 Si'

loop_
_publ_author_name
 'G. V. Anan\'eva'
 'A. M. Korovkin'
 'T. I. Merkulyaeva'
 'A. M. Morozova'
 'M. V. Petrov'
 'I. R. Savinova'
 'V. R. Startsev'
 'P. P. Feofilov'
_journal_name_full_name
;
 Inorganic Materials
;
_journal_volume 17
_journal_year 1981
_journal_page_first 754
_journal_page_last 758
_publ_Section_title
;
 Growth of lanthanide oxyorthosilicate single crystals, and their structural and optical characteristics
;

# Found in Gd$_{2}$SiO$_{5}$ (Gd$_{2}$[SiO$_{4}$]O) Crystal Structure, {PAULING FILE in: Inorganic Solid Phases, SpringerMaterials (online database), Springer, Heidelberg (ed.) SpringerMaterials }, 2016

_aflow_title 'Gd$_{2}$SiO$_{5}$ ($RE$$_{2}$SiO$_{5}$ X1) Structure'
_aflow_proto 'A2B5C_mP32_14_2e_5e_e'
_aflow_params 'a,b/a,c/a,\beta,x_{1},y_{1},z_{1},x_{2},y_{2},z_{2},x_{3},y_{3},z_{3},x_{4},y_{4},z_{4},x_{5},y_{5},z_{5},x_{6},y_{6},z_{6},x_{7},y_{7},z_{7},x_{8},y_{8},z_{8}'
_aflow_params_values '9.16,0.770742358079,0.745633187773,107.58,0.02458,0.12451,0.23428,0.38547,0.146,0.08372,0.1163,0.3782,0.4513,0.2968,0.0698,0.3547,0.3683,0.4587,0.248,0.5941,0.2681,0.4507,0.8839,0.3639,0.0059,0.298,0.5876,0.0402'
_aflow_Strukturbericht 'None'
_aflow_Pearson 'mP32'

_symmetry_space_group_name_H-M "P 1 21/c 1"
_symmetry_Int_Tables_number 14
 
_cell_length_a    9.16000
_cell_length_b    7.06000
_cell_length_c    6.83000
_cell_angle_alpha 90.00000
_cell_angle_beta  107.58000
_cell_angle_gamma 90.00000
 
loop_
_space_group_symop_id
_space_group_symop_operation_xyz
1 x,y,z
2 -x,y+1/2,-z+1/2
3 -x,-y,-z
4 x,-y+1/2,z+1/2
 
loop_
_atom_site_label
_atom_site_type_symbol
_atom_site_symmetry_multiplicity
_atom_site_Wyckoff_label
_atom_site_fract_x
_atom_site_fract_y
_atom_site_fract_z
_atom_site_occupancy
Gd1 Gd 4 e 0.02458 0.12451 0.23428 1.00000
Gd2 Gd 4 e 0.38547 0.14600 0.08372 1.00000
O1 O 4 e 0.11630 0.37820 0.45130 1.00000
O2 O 4 e 0.29680 0.06980 0.35470 1.00000
O3 O 4 e 0.36830 0.45870 0.24800 1.00000
O4 O 4 e 0.59410 0.26810 0.45070 1.00000
O5 O 4 e 0.88390 0.36390 0.00590 1.00000
Si1 Si 4 e 0.29800 0.58760 0.04020 1.00000
