# CIF file 
data_findsym-output
_audit_creation_method FINDSYM

_chemical_name_mineral 'K2O5Ti2'
_chemical_formula_sum 'K2 O5 Ti2'

loop_
_publ_author_name
 'S. Andersson'
 'A. D. Wadsley'
_journal_name_full_name
;
 Acta Chemica Scandinavica
;
_journal_volume 15
_journal_year 1961
_journal_page_first 663
_journal_page_last 669
_publ_Section_title
;
 The Crystal Structure of K$_{2}$Ti$_{2}$O$_{5}$
;

_aflow_title 'K$_{2}$Ti$_{2}$O$_{5}$ Structure'
_aflow_proto 'A2B5C2_mC18_12_i_a2i_i'
_aflow_params 'a,b/a,c/a,\beta,x_{2},z_{2},x_{3},z_{3},x_{4},z_{4},x_{5},z_{5}'
_aflow_params_values '11.37,0.334212840809,0.582233948989,100.1,0.4022,0.6439,0.128,0.664,0.325,0.008,0.1495,-0.0928'
_aflow_Strukturbericht 'None'
_aflow_Pearson 'mC18'

_symmetry_space_group_name_H-M "C 1 2/m 1"
_symmetry_Int_Tables_number 12
 
_cell_length_a    11.37000
_cell_length_b    3.80000
_cell_length_c    6.62000
_cell_angle_alpha 90.00000
_cell_angle_beta  100.10000
_cell_angle_gamma 90.00000
 
loop_
_space_group_symop_id
_space_group_symop_operation_xyz
1 x,y,z
2 -x,y,-z
3 -x,-y,-z
4 x,-y,z
5 x+1/2,y+1/2,z
6 -x+1/2,y+1/2,-z
7 -x+1/2,-y+1/2,-z
8 x+1/2,-y+1/2,z
 
loop_
_atom_site_label
_atom_site_type_symbol
_atom_site_symmetry_multiplicity
_atom_site_Wyckoff_label
_atom_site_fract_x
_atom_site_fract_y
_atom_site_fract_z
_atom_site_occupancy
O1 O 2 a 0.00000 0.00000 0.00000 1.00000
K1 K 4 i 0.40220 0.00000 0.64390 1.00000
O2 O 4 i 0.12800 0.00000 0.66400 1.00000
O3 O 4 i 0.32500 0.00000 0.00800 1.00000
Ti1 Ti 4 i 0.14950 0.00000 -0.09280 1.00000