# CIF file 
data_findsym-output
_audit_creation_method FINDSYM

_chemical_name_mineral 'Cl2(H2O)6MgO8'
_chemical_formula_sum 'Cl2 (H2O)6 Mg O8'

loop_
_publ_author_name
 'C. D. West'
_journal_name_full_name
;
 Zeitschrift f{\"u}r Kristallographie - Crystalline Materials
;
_journal_volume 91
_journal_year 1935
_journal_page_first 480
_journal_page_last 493
_publ_Section_title
;
 Crystal Structures of Hydrated Compounds II. Structure Type Mg(ClO$_{4}$)$_{2}$$\cdot$6H$_{2}$O
;

# Found in Stability of phases in the Mg(ClO$_{4}$)$_{2}$$\cdot$$n$H$_{2}$O system and implications for perchlorate occurrences on Mars, 2011

_aflow_title 'Mg(ClO$_{4}$)$_{2}$$\cdot$6H$_{2}$O ($H4_{11}$) Structure'
_aflow_proto 'A2B6CD8_oP34_31_2a_2a2b_a_4a2b'
_aflow_params 'a,b/a,c/a,y_{1},z_{1},y_{2},z_{2},y_{3},z_{3},y_{4},z_{4},y_{5},z_{5},y_{6},z_{6},y_{7},z_{7},y_{8},z_{8},y_{9},z_{9},x_{10},y_{10},z_{10},x_{11},y_{11},z_{11},x_{12},y_{12},z_{12},x_{13},y_{13},z_{13}'
_aflow_params_values '7.76,1.73453608247,0.677835051546,-0.08333,0.5,0.58333,0.0,0.125,0.0,0.375,0.5,0.25,0.75,-0.08333,0.77778,0.58333,0.27778,0.81111,0.40833,0.68889,-0.09167,0.8125,0.1875,0.5,0.8125,0.3125,0.0,0.84167,-0.03056,0.40833,0.84167,0.53056,-0.09167'
_aflow_Strukturbericht '$H4_{11}$'
_aflow_Pearson 'oP34'

_symmetry_space_group_name_H-M "P m n 21"
_symmetry_Int_Tables_number 31
 
_cell_length_a    7.76000
_cell_length_b    13.46000
_cell_length_c    5.26000
_cell_angle_alpha 90.00000
_cell_angle_beta  90.00000
_cell_angle_gamma 90.00000
 
loop_
_space_group_symop_id
_space_group_symop_operation_xyz
1 x,y,z
2 -x+1/2,-y,z+1/2
3 -x,y,z
4 x+1/2,-y,z+1/2
 
loop_
_atom_site_label
_atom_site_type_symbol
_atom_site_symmetry_multiplicity
_atom_site_Wyckoff_label
_atom_site_fract_x
_atom_site_fract_y
_atom_site_fract_z
_atom_site_occupancy
Cl1 Cl 2 a 0.00000 -0.08333 0.50000 1.00000
Cl2 Cl 2 a 0.00000 0.58333 0.00000 1.00000
H2O1 H2O 2 a 0.00000 0.12500 0.00000 1.00000
H2O2 H2O 2 a 0.00000 0.37500 0.50000 1.00000
Mg1 Mg 2 a 0.00000 0.25000 0.75000 1.00000
O1 O 2 a 0.00000 -0.08333 0.77778 1.00000
O2 O 2 a 0.00000 0.58333 0.27778 1.00000
O3 O 2 a 0.00000 0.81111 0.40833 1.00000
O4 O 2 a 0.00000 0.68889 -0.09167 1.00000
H2O3 H2O 4 b 0.81250 0.18750 0.50000 1.00000
H2O4 H2O 4 b 0.81250 0.31250 0.00000 1.00000
O5 O 4 b 0.84167 -0.03056 0.40833 1.00000
O6 O 4 b 0.84167 0.53056 -0.09167 1.00000