# CIF file 
data_findsym-output
_audit_creation_method FINDSYM

_chemical_name_mineral 'N2(NH3)6NiO6'
_chemical_formula_sum 'N2 (NH3)6 Ni O6'

loop_
_publ_author_name
 'R. W. G. Wyckoff'
_journal_name_full_name
;
 Journal of the American Chemical Society
;
_journal_volume 44
_journal_year 1922
_journal_page_first 1260
_journal_page_last 1266
_publ_Section_title
;
 The Composition and Crystal Structure of Nickel Nitrate Hexammoniate
;

# Found in Strukturbericht 1913-1928, 1931

_aflow_title '$H6_{4}$ [Ni(NO$_{3}$)$_{2}$(NH$_{3}$)$_{6}$] ({\em{obsolete}}) Structure'
_aflow_proto 'A2B6CD6_cP60_205_c_d_a_d'
_aflow_params 'a,x_{2},x_{3},y_{3},z_{3},x_{4},y_{4},z_{4}'
_aflow_params_values '10.96,0.25,0.24,0.0,0.0,0.25,0.25,0.01'
_aflow_Strukturbericht '$H6_{4}$'
_aflow_Pearson 'cP60'

_symmetry_space_group_name_H-M "P 21/a -3"
_symmetry_Int_Tables_number 205
 
_cell_length_a    10.96000
_cell_length_b    10.96000
_cell_length_c    10.96000
_cell_angle_alpha 90.00000
_cell_angle_beta  90.00000
_cell_angle_gamma 90.00000
 
loop_
_space_group_symop_id
_space_group_symop_operation_xyz
1 x,y,z
2 x+1/2,-y+1/2,-z
3 -x,y+1/2,-z+1/2
4 -x+1/2,-y,z+1/2
5 y,z,x
6 y+1/2,-z+1/2,-x
7 -y,z+1/2,-x+1/2
8 -y+1/2,-z,x+1/2
9 z,x,y
10 z+1/2,-x+1/2,-y
11 -z,x+1/2,-y+1/2
12 -z+1/2,-x,y+1/2
13 -x,-y,-z
14 -x+1/2,y+1/2,z
15 x,-y+1/2,z+1/2
16 x+1/2,y,-z+1/2
17 -y,-z,-x
18 -y+1/2,z+1/2,x
19 y,-z+1/2,x+1/2
20 y+1/2,z,-x+1/2
21 -z,-x,-y
22 -z+1/2,x+1/2,y
23 z,-x+1/2,y+1/2
24 z+1/2,x,-y+1/2
 
loop_
_atom_site_label
_atom_site_type_symbol
_atom_site_symmetry_multiplicity
_atom_site_Wyckoff_label
_atom_site_fract_x
_atom_site_fract_y
_atom_site_fract_z
_atom_site_occupancy
Ni1 Ni 4 a 0.00000 0.00000 0.00000 1.00000
N1 N 8 c 0.25000 0.25000 0.25000 1.00000
NH31 NH3 24 d 0.24000 0.00000 0.00000 1.00000
O1 O 24 d 0.25000 0.25000 0.01000 1.00000
