# CIF file 
data_findsym-output
_audit_creation_method FINDSYM

_chemical_name_mineral 'Mo2O7Rb2'
_chemical_formula_sum 'Mo2 O7 Rb2'

loop_
_publ_author_name
 'Z. A. Solodovnikova'
 'S. F. Solodovnikov'
_journal_name_full_name
;
 Acta Crystallographica Section C: Structural Chemistry
;
_journal_volume 62
_journal_year 2006
_journal_page_first i53
_journal_page_last i56
_publ_Section_title
;
 Rubidium dimolybdate, Rb$_{2}$Mo$_{2}$O$_{7}$, and caesium dimolybdate, Cs$_{2}$Mo$_{2}$O$_{7}$
;

_aflow_title 'Rb$_{2}$Mo$_{2}$O$_{7}$ Structure'
_aflow_proto 'A2B7C2_oC88_40_abc_2b6c_a3b'
_aflow_params 'a,b/a,c/a,z_{1},z_{2},y_{3},z_{3},y_{4},z_{4},y_{5},z_{5},y_{6},z_{6},y_{7},z_{7},y_{8},z_{8},x_{9},y_{9},z_{9},x_{10},y_{10},z_{10},x_{11},y_{11},z_{11},x_{12},y_{12},z_{12},x_{13},y_{13},z_{13},x_{14},y_{14},z_{14},x_{15},y_{15},z_{15}'
_aflow_params_values '11.8887,1.07920125834,0.861860422081,0.56117,0.0,0.47105,0.28712,0.3413,0.244,0.4846,0.4559,0.48386,0.7361,0.21144,0.4933,0.2554,-0.0226,0.01169,0.25276,0.22891,0.1103,0.5171,-0.0426,0.0319,0.3571,0.1036,0.1236,0.5306,0.228,0.8759,0.205,0.2201,0.1013,0.1507,0.1898,0.0325,0.2957,0.3879'
_aflow_Strukturbericht 'None'
_aflow_Pearson 'oC88'

_symmetry_space_group_name_H-M "A m a 2"
_symmetry_Int_Tables_number 40
 
_cell_length_a    11.88870
_cell_length_b    12.83030
_cell_length_c    10.24640
_cell_angle_alpha 90.00000
_cell_angle_beta  90.00000
_cell_angle_gamma 90.00000
 
loop_
_space_group_symop_id
_space_group_symop_operation_xyz
1 x,y,z
2 -x,-y,z
3 x+1/2,-y,z
4 -x+1/2,y,z
5 x,y+1/2,z+1/2
6 -x,-y+1/2,z+1/2
7 x+1/2,-y+1/2,z+1/2
8 -x+1/2,y+1/2,z+1/2
 
loop_
_atom_site_label
_atom_site_type_symbol
_atom_site_symmetry_multiplicity
_atom_site_Wyckoff_label
_atom_site_fract_x
_atom_site_fract_y
_atom_site_fract_z
_atom_site_occupancy
Mo1 Mo 4 a 0.00000 0.00000 0.56117 1.00000
Rb1 Rb 4 a 0.00000 0.00000 0.00000 1.00000
Mo2 Mo 4 b 0.25000 0.47105 0.28712 1.00000
O1 O 4 b 0.25000 0.34130 0.24400 1.00000
O2 O 4 b 0.25000 0.48460 0.45590 1.00000
Rb2 Rb 4 b 0.25000 0.48386 0.73610 1.00000
Rb3 Rb 4 b 0.25000 0.21144 0.49330 1.00000
Rb4 Rb 4 b 0.25000 0.25540 -0.02260 1.00000
Mo3 Mo 8 c 0.01169 0.25276 0.22891 1.00000
O3 O 8 c 0.11030 0.51710 -0.04260 1.00000
O4 O 8 c 0.03190 0.35710 0.10360 1.00000
O5 O 8 c 0.12360 0.53060 0.22800 1.00000
O6 O 8 c 0.87590 0.20500 0.22010 1.00000
O7 O 8 c 0.10130 0.15070 0.18980 1.00000
O8 O 8 c 0.03250 0.29570 0.38790 1.00000