# CIF file 
data_findsym-output
_audit_creation_method FINDSYM

_chemical_name_mineral 'Cl2H6MgN2'
_chemical_formula_sum 'Cl2 H8 Mg N2'

loop_
_publ_author_name
 'A. Leineweber'
 'M. W. Friedriszik'
 'H. Jacobs'
_journal_name_full_name
;
 Journal of Solid State Chemistry
;
_journal_volume 147
_journal_year 1999
_journal_page_first 229
_journal_page_last 234
_publ_Section_title
;
 Preparation and Crystal Structures of Mg(NH$_{3}$)$_{2}$Cl$_{2}$, Mg(NH$_{3}$)$_{2}$Br$_{2}$, and Mg(NH$_{3}$)$_{2}$I$_{2}$
;

_aflow_title 'Mg(NH$_{3}$)$_{2}$Cl$_{2}$ ($E1_{3}$) Structure'
_aflow_proto 'A2B8CD2_oC26_65_h_r_a_i'
_aflow_params 'a,b/a,c/a,x_{2},y_{3},x_{4},y_{4},z_{4}'
_aflow_params_values '8.18099,1.00314142909,0.458990904524,0.2133,0.2595,0.045,0.312,0.158'
_aflow_Strukturbericht '$E1_{3}$'
_aflow_Pearson 'oC26'

_symmetry_space_group_name_H-M "C 2/m 2/m 2/m"
_symmetry_Int_Tables_number 65
 
_cell_length_a    8.18099
_cell_length_b    8.20669
_cell_length_c    3.75500
_cell_angle_alpha 90.00000
_cell_angle_beta  90.00000
_cell_angle_gamma 90.00000
 
loop_
_space_group_symop_id
_space_group_symop_operation_xyz
1 x,y,z
2 x,-y,-z
3 -x,y,-z
4 -x,-y,z
5 -x,-y,-z
6 -x,y,z
7 x,-y,z
8 x,y,-z
9 x+1/2,y+1/2,z
10 x+1/2,-y+1/2,-z
11 -x+1/2,y+1/2,-z
12 -x+1/2,-y+1/2,z
13 -x+1/2,-y+1/2,-z
14 -x+1/2,y+1/2,z
15 x+1/2,-y+1/2,z
16 x+1/2,y+1/2,-z
 
loop_
_atom_site_label
_atom_site_type_symbol
_atom_site_symmetry_multiplicity
_atom_site_Wyckoff_label
_atom_site_fract_x
_atom_site_fract_y
_atom_site_fract_z
_atom_site_occupancy
Mg1 Mg 2 a 0.00000 0.00000 0.00000 1.00000
Cl1 Cl 4 h 0.21330 0.00000 0.50000 1.00000
N1 N 4 i 0.00000 0.25950 0.00000 1.00000
H1 H 16 r 0.04500 0.31200 0.15800 0.75000