# CIF file 
data_findsym-output
_audit_creation_method FINDSYM

_chemical_name_mineral 'As2Nb'
_chemical_formula_sum 'As2 Nb'

loop_
_publ_author_name
 'S. Furuseth'
 'A. Kjekshus'
_journal_name_full_name
;
 Acta Cristallographica
;
_journal_volume 18
_journal_year 1965
_journal_page_first 320
_journal_page_last 324
_publ_Section_title
;
 The Crystal Structures of NbAs$_{2}$ and NbSb$_{2}$
;

_aflow_title 'NbAs$_{2}$ Structure'
_aflow_proto 'A2B_mC12_5_2c_c'
_aflow_params 'a,b/a,c/a,\beta,x_{1},y_{1},z_{1},x_{2},y_{2},z_{2},x_{3},y_{3},z_{3}'
_aflow_params_values '9.357,0.36147269424,0.8327455381,119.76667,0.0948,0.488,0.3928,0.1399,0.067,0.0257,0.3444,0.5,0.3044'
_aflow_Strukturbericht 'None'
_aflow_Pearson 'mC12'

_symmetry_space_group_name_H-M "C 1 2 1"
_symmetry_Int_Tables_number 5
 
_cell_length_a    9.35700
_cell_length_b    3.38230
_cell_length_c    7.79200
_cell_angle_alpha 90.00000
_cell_angle_beta  119.76667
_cell_angle_gamma 90.00000
 
loop_
_space_group_symop_id
_space_group_symop_operation_xyz
1 x,y,z
2 -x,y,-z
3 x+1/2,y+1/2,z
4 -x+1/2,y+1/2,-z
 
loop_
_atom_site_label
_atom_site_type_symbol
_atom_site_symmetry_multiplicity
_atom_site_Wyckoff_label
_atom_site_fract_x
_atom_site_fract_y
_atom_site_fract_z
_atom_site_occupancy
As1 As 4 c 0.09480 0.48800 0.39280 1.00000
As2 As 4 c 0.13990 0.06700 0.02570 1.00000
Nb1 Nb 4 c 0.34440 0.50000 0.30440 1.00000