# CIF file 
data_findsym-output
_audit_creation_method FINDSYM

_chemical_name_mineral 'C2Th'
_chemical_formula_sum 'C2 Th'

loop_
_publ_author_name
 'A. L. Bowman'
 'N. H. Krikorian'
 'G. P. Arnold'
 'T. C. Wallace'
 'N. G. Nereson'
_journal_name_full_name
;
 Acta Crystallographica Section B: Structural Science
;
_journal_volume 24
_journal_year 1968
_journal_page_first 1121
_journal_page_last 1123
_publ_Section_title
;
 The Crystal Structure of ThC$_{2}$
;

_aflow_title 'ThC$_{2}$ (C$_{g}$) Structure'
_aflow_proto 'A2B_mC12_15_f_e'
_aflow_params 'a,b/a,c/a,\beta,y_{1},x_{2},y_{2},z_{2}'
_aflow_params_values '6.692,0.631052002391,1.00777047221,103.12,0.2074,0.2992,0.1326,0.054'
_aflow_Strukturbericht 'None'
_aflow_Pearson 'mC12'

_symmetry_space_group_name_H-M "C 1 2/c 1"
_symmetry_Int_Tables_number 15
 
_cell_length_a    6.69200
_cell_length_b    4.22300
_cell_length_c    6.74400
_cell_angle_alpha 90.00000
_cell_angle_beta  103.12000
_cell_angle_gamma 90.00000
 
loop_
_space_group_symop_id
_space_group_symop_operation_xyz
1 x,y,z
2 -x,y,-z+1/2
3 -x,-y,-z
4 x,-y,z+1/2
5 x+1/2,y+1/2,z
6 -x+1/2,y+1/2,-z+1/2
7 -x+1/2,-y+1/2,-z
8 x+1/2,-y+1/2,z+1/2
 
loop_
_atom_site_label
_atom_site_type_symbol
_atom_site_symmetry_multiplicity
_atom_site_Wyckoff_label
_atom_site_fract_x
_atom_site_fract_y
_atom_site_fract_z
_atom_site_occupancy
Th1 Th 4 e 0.00000 0.20740 0.25000 1.00000
C1 C 8 f 0.29920 0.13260 0.05400 1.00000