# CIF file 
data_findsym-output
_audit_creation_method FINDSYM

_chemical_name_mineral 'F2H5N'
_chemical_formula_sum 'F2 H (NH4)'

loop_
_publ_author_name
 'M. T. Rogers'
 'L. Helmholz'
_journal_name_full_name
;
 Journal of the American Chemical Society
;
_journal_volume 62
_journal_year 1940
_journal_page_first 1533
_journal_page_last 1536
_publ_Section_title
;
 A Redetermination of the Parameters in Ammonium Bifluoride
;

# Found in The American Mineralogist Crystal Structure Database, 2003

_aflow_title 'NH$_{4}$HF$_{2}$ ($F5_{8}$) Structure'
_aflow_proto 'A2BC_oP16_53_eh_ab_g'
_aflow_params 'a,b/a,c/a,x_{3},y_{4},y_{5},z_{5}'
_aflow_params_values '8.426,0.437930215998,0.970804652267,0.863,0.46,0.869,0.371'
_aflow_Strukturbericht '$F5_{8}$'
_aflow_Pearson 'oP16'

_symmetry_space_group_name_H-M "P 2/m 2/n 21/a"
_symmetry_Int_Tables_number 53
 
_cell_length_a    8.42600
_cell_length_b    3.69000
_cell_length_c    8.18000
_cell_angle_alpha 90.00000
_cell_angle_beta  90.00000
_cell_angle_gamma 90.00000
 
loop_
_space_group_symop_id
_space_group_symop_operation_xyz
1 x,y,z
2 x,-y,-z
3 -x+1/2,y,-z+1/2
4 -x+1/2,-y,z+1/2
5 -x,-y,-z
6 -x,y,z
7 x+1/2,-y,z+1/2
8 x+1/2,y,-z+1/2
 
loop_
_atom_site_label
_atom_site_type_symbol
_atom_site_symmetry_multiplicity
_atom_site_Wyckoff_label
_atom_site_fract_x
_atom_site_fract_y
_atom_site_fract_z
_atom_site_occupancy
H1 H 2 a 0.00000 0.00000 0.00000 1.00000
H2 H 2 b 0.50000 0.00000 0.00000 1.00000
F1 F 4 e 0.86300 0.00000 0.00000 1.00000
NH41 NH4 4 g 0.25000 0.46000 0.25000 1.00000
F2 F 4 h 0.00000 0.86900 0.37100 1.00000