# CIF file 
data_findsym-output
_audit_creation_method FINDSYM

_chemical_name_mineral 'B2BaO4'
_chemical_formula_sum 'B2 Ba O4'

loop_
_publ_author_name
 'A. D. Mighell'
 'A. Perloff'
 'S. Block'
_journal_name_full_name
;
 Acta Cristallographica
;
_journal_volume 20
_journal_year 1966
_journal_page_first 819
_journal_page_last 823
_publ_Section_title
;
 The crystal structure of the high temperature form of barium borate, BaO$\cdot$B$_{2}$O$_{3}$
;

# Found in Crystal Structure of the low-temperature form of BaB$_{2}$O$_{4}$, 1984

_aflow_title '$\beta$-BaB$_{2}$O$_{4}$ (High-Temperature) Structure'
_aflow_proto 'A2BC4_hR42_167_f_ac_2f'
_aflow_params 'a,c/a,x_{2},x_{3},y_{3},z_{3},x_{4},y_{4},z_{4},x_{5},y_{5},z_{5}'
_aflow_params_values '7.235,5.41700069109,0.84983,0.35996,-0.25104,0.50497,0.335,-0.429,0.71401,0.4775,0.1905,-0.05849'
_aflow_Strukturbericht 'None'
_aflow_Pearson 'hR42'

_symmetry_space_group_name_H-M "R -3 2/c (hexagonal axes)"
_symmetry_Int_Tables_number 167
 
_cell_length_a    7.23500
_cell_length_b    7.23500
_cell_length_c    39.19200
_cell_angle_alpha 90.00000
_cell_angle_beta  90.00000
_cell_angle_gamma 120.00000
 
loop_
_space_group_symop_id
_space_group_symop_operation_xyz
1 x,y,z
2 -y,x-y,z
3 -x+y,-x,z
4 y,x,-z+1/2
5 -x,-x+y,-z+1/2
6 x-y,-y,-z+1/2
7 -x,-y,-z
8 y,-x+y,-z
9 x-y,x,-z
10 -y,-x,z+1/2
11 x,x-y,z+1/2
12 -x+y,y,z+1/2
13 x+1/3,y+2/3,z+2/3
14 -y+1/3,x-y+2/3,z+2/3
15 -x+y+1/3,-x+2/3,z+2/3
16 y+1/3,x+2/3,-z+1/6
17 -x+1/3,-x+y+2/3,-z+1/6
18 x-y+1/3,-y+2/3,-z+1/6
19 -x+1/3,-y+2/3,-z+2/3
20 y+1/3,-x+y+2/3,-z+2/3
21 x-y+1/3,x+2/3,-z+2/3
22 -y+1/3,-x+2/3,z+1/6
23 x+1/3,x-y+2/3,z+1/6
24 -x+y+1/3,y+2/3,z+1/6
25 x+2/3,y+1/3,z+1/3
26 -y+2/3,x-y+1/3,z+1/3
27 -x+y+2/3,-x+1/3,z+1/3
28 y+2/3,x+1/3,-z+5/6
29 -x+2/3,-x+y+1/3,-z+5/6
30 x-y+2/3,-y+1/3,-z+5/6
31 -x+2/3,-y+1/3,-z+1/3
32 y+2/3,-x+y+1/3,-z+1/3
33 x-y+2/3,x+1/3,-z+1/3
34 -y+2/3,-x+1/3,z+5/6
35 x+2/3,x-y+1/3,z+5/6
36 -x+y+2/3,y+1/3,z+5/6
 
loop_
_atom_site_label
_atom_site_type_symbol
_atom_site_symmetry_multiplicity
_atom_site_Wyckoff_label
_atom_site_fract_x
_atom_site_fract_y
_atom_site_fract_z
_atom_site_occupancy
Ba1 Ba 6 a 0.00000 0.00000 0.25000 1.00000
Ba2 Ba 12 c 0.00000 0.00000 0.84983 1.00000
B1 B 36 f 0.15533 0.45567 0.20463 1.00000
O1 O 36 f 0.12833 0.63567 0.20667 1.00000
O2 O 36 f 0.27433 0.01267 0.20317 1.00000