# CIF file 
data_findsym-output
_audit_creation_method FINDSYM

_chemical_name_mineral 'Bi2MnTe4'
_chemical_formula_sum 'Bi2 Mn Te4'

loop_
_publ_author_name
 'J.-Q. Yan'
 'Q. Zhang'
 'T. Heitmann'
 'Z. Huang'
 'K. Y. Chen'
 'J.-G. Cheng'
 'W. Wu'
 'D. Vaknin'
 'B. C. Sales'
 'R. J. McQueeney'
_journal_name_full_name
;
 Physical Review Materials
;
_journal_volume 3
_journal_year 2019
_journal_page_first 064202
_journal_page_last 064202
_publ_Section_title
;
 Crystal growth and magnetic structure of MnBi$_{2}$Te$_{4}$
;

_aflow_title 'MnBi$_{2}$Te$_{4}$ Structure'
_aflow_proto 'A2BC4_hR7_166_c_a_2c'
_aflow_params 'a,c/a,x_{2},x_{3},x_{4}'
_aflow_params_values '4.309,9.44047342771,0.4247,0.1332,0.294'
_aflow_Strukturbericht 'None'
_aflow_Pearson 'hR7'

_symmetry_space_group_name_H-M "R -3 2/m (hexagonal axes)"
_symmetry_Int_Tables_number 166
 
_cell_length_a    4.30900
_cell_length_b    4.30900
_cell_length_c    40.67900
_cell_angle_alpha 90.00000
_cell_angle_beta  90.00000
_cell_angle_gamma 120.00000
 
loop_
_space_group_symop_id
_space_group_symop_operation_xyz
1 x,y,z
2 -y,x-y,z
3 -x+y,-x,z
4 y,x,-z
5 -x,-x+y,-z
6 x-y,-y,-z
7 -x,-y,-z
8 y,-x+y,-z
9 x-y,x,-z
10 -y,-x,z
11 x,x-y,z
12 -x+y,y,z
13 x+1/3,y+2/3,z+2/3
14 -y+1/3,x-y+2/3,z+2/3
15 -x+y+1/3,-x+2/3,z+2/3
16 y+1/3,x+2/3,-z+2/3
17 -x+1/3,-x+y+2/3,-z+2/3
18 x-y+1/3,-y+2/3,-z+2/3
19 -x+1/3,-y+2/3,-z+2/3
20 y+1/3,-x+y+2/3,-z+2/3
21 x-y+1/3,x+2/3,-z+2/3
22 -y+1/3,-x+2/3,z+2/3
23 x+1/3,x-y+2/3,z+2/3
24 -x+y+1/3,y+2/3,z+2/3
25 x+2/3,y+1/3,z+1/3
26 -y+2/3,x-y+1/3,z+1/3
27 -x+y+2/3,-x+1/3,z+1/3
28 y+2/3,x+1/3,-z+1/3
29 -x+2/3,-x+y+1/3,-z+1/3
30 x-y+2/3,-y+1/3,-z+1/3
31 -x+2/3,-y+1/3,-z+1/3
32 y+2/3,-x+y+1/3,-z+1/3
33 x-y+2/3,x+1/3,-z+1/3
34 -y+2/3,-x+1/3,z+1/3
35 x+2/3,x-y+1/3,z+1/3
36 -x+y+2/3,y+1/3,z+1/3
 
loop_
_atom_site_label
_atom_site_type_symbol
_atom_site_symmetry_multiplicity
_atom_site_Wyckoff_label
_atom_site_fract_x
_atom_site_fract_y
_atom_site_fract_z
_atom_site_occupancy
Mn1 Mn 3 a 0.00000 0.00000 0.00000 1.00000
Bi1 Bi 6 c 0.00000 0.00000 0.42470 1.00000
Te1 Te 6 c 0.00000 0.00000 0.13320 1.00000
Te2 Te 6 c 0.00000 0.00000 0.29400 1.00000