# CIF file 
data_findsym-output
_audit_creation_method FINDSYM

_chemical_name_mineral 'Hg2INaO2'
_chemical_formula_sum 'Hg2 I Na O2'

loop_
_publ_author_name
 'K. Aurivillius'
_journal_name_full_name
;
 Acta Chemica Scandinavica
;
_journal_volume 18
_journal_year 1964
_journal_page_first 1305
_journal_page_last 1306
_publ_Section_title
;
 Least-Squares Refinement of the Crystal Structures of Orthorhombic HgO and of Hg$_{2}$O$_{2}$NaI
;

_aflow_title 'Hg$_{2}$O$_{2}$NaI Structure'
_aflow_proto 'A2BCD2_hP18_180_f_c_b_i'
_aflow_params 'a,c/a,z_{3},x_{4}'
_aflow_params_values '6.667,1.50802459877,0.3333,0.1521'
_aflow_Strukturbericht 'None'
_aflow_Pearson 'hP18'

_symmetry_space_group_name_H-M "P 62 2 2"
_symmetry_Int_Tables_number 180
 
_cell_length_a    6.66700
_cell_length_b    6.66700
_cell_length_c    10.05400
_cell_angle_alpha 90.00000
_cell_angle_beta  90.00000
_cell_angle_gamma 120.00000
 
loop_
_space_group_symop_id
_space_group_symop_operation_xyz
1 x,y,z
2 x-y,x,z+1/3
3 -y,x-y,z+2/3
4 -x,-y,z
5 -x+y,-x,z+1/3
6 y,-x+y,z+2/3
7 x-y,-y,-z
8 x,x-y,-z+1/3
9 y,x,-z+2/3
10 -x+y,y,-z
11 -x,-x+y,-z+1/3
12 -y,-x,-z+2/3
 
loop_
_atom_site_label
_atom_site_type_symbol
_atom_site_symmetry_multiplicity
_atom_site_Wyckoff_label
_atom_site_fract_x
_atom_site_fract_y
_atom_site_fract_z
_atom_site_occupancy
Na1 Na 3 b 0.00000 0.00000 0.50000 1.00000
I1 I 3 c 0.50000 0.00000 0.00000 1.00000
Hg1 Hg 6 f 0.50000 0.00000 0.33330 1.00000
O1 O 6 i 0.15210 0.30420 0.00000 1.00000