# CIF file 
data_findsym-output
_audit_creation_method FINDSYM

_chemical_name_mineral 'Sb2SiV4'
_chemical_formula_sum 'Sb2 Si V4'

loop_
_publ_author_name
 'P. Wollesen'
 'W. Jeitschko'
_journal_name_full_name
;
 Journal of Alloys and Compounds
;
_journal_volume 243
_journal_year 1996
_journal_page_first 67
_journal_page_last 69
_publ_Section_title
;
 V$_{4}$SiSb$_{2}$, a vanadium silicide antimonide crystallizing with a defect variant of the W$_{5}$Si$_{3}$-type structure
;

_aflow_title 'V$_{4}$SiSb$_{2}$ Structure'
_aflow_proto 'A2BC4_tI28_140_h_a_k'
_aflow_params 'a,c/a,x_{2},x_{3},y_{3}'
_aflow_params_values '9.87199,0.476803562402,0.14094,0.0852,0.20674'
_aflow_Strukturbericht 'None'
_aflow_Pearson 'tI28'

_symmetry_space_group_name_H-M "I 4/m 2/c 2/m"
_symmetry_Int_Tables_number 140
 
_cell_length_a    9.87199
_cell_length_b    9.87199
_cell_length_c    4.70700
_cell_angle_alpha 90.00000
_cell_angle_beta  90.00000
_cell_angle_gamma 90.00000
 
loop_
_space_group_symop_id
_space_group_symop_operation_xyz
1 x,y,z
2 x,-y,-z+1/2
3 -x,y,-z+1/2
4 -x,-y,z
5 -y,-x,-z+1/2
6 -y,x,z
7 y,-x,z
8 y,x,-z+1/2
9 -x,-y,-z
10 -x,y,z+1/2
11 x,-y,z+1/2
12 x,y,-z
13 y,x,z+1/2
14 y,-x,-z
15 -y,x,-z
16 -y,-x,z+1/2
17 x+1/2,y+1/2,z+1/2
18 x+1/2,-y+1/2,-z
19 -x+1/2,y+1/2,-z
20 -x+1/2,-y+1/2,z+1/2
21 -y+1/2,-x+1/2,-z
22 -y+1/2,x+1/2,z+1/2
23 y+1/2,-x+1/2,z+1/2
24 y+1/2,x+1/2,-z
25 -x+1/2,-y+1/2,-z+1/2
26 -x+1/2,y+1/2,z
27 x+1/2,-y+1/2,z
28 x+1/2,y+1/2,-z+1/2
29 y+1/2,x+1/2,z
30 y+1/2,-x+1/2,-z+1/2
31 -y+1/2,x+1/2,-z+1/2
32 -y+1/2,-x+1/2,z
 
loop_
_atom_site_label
_atom_site_type_symbol
_atom_site_symmetry_multiplicity
_atom_site_Wyckoff_label
_atom_site_fract_x
_atom_site_fract_y
_atom_site_fract_z
_atom_site_occupancy
Si1 Si 4 a 0.00000 0.00000 0.25000 1.00000
Sb1 Sb 8 h 0.14094 0.64094 0.00000 1.00000
V1 V 16 k 0.08520 0.20674 0.00000 1.00000