# CIF file 
data_findsym-output
_audit_creation_method FINDSYM

_chemical_name_mineral 'C2(H2O)O4Rb2'
_chemical_formula_sum 'C2 (H2O) O4 Rb2'

loop_
_publ_author_name
 'B. F. Pedersen'
_journal_name_full_name
;
 Acta Chemica Scandinavica
;
_journal_volume 19
_journal_year 1965
_journal_page_first 1815
_journal_page_last 1818
_publ_Section_title
;
 The Crystal Structure of Rubidium. Oxalate Monohydrate, Rb$_{2}$C$_{2}$O$_{4}\cdot$H$_{2}$O
;

_aflow_title 'Rb$_{2}$C$_{2}$O$_{4}\cdot$H$_{2}$O Structure'
_aflow_proto 'A2BC4D2_mC36_15_f_e_2f_f'
_aflow_params 'a,b/a,c/a,\beta,y_{1},x_{2},y_{2},z_{2},x_{3},y_{3},z_{3},x_{4},y_{4},z_{4},x_{5},y_{5},z_{5}'
_aflow_params_values '9.662,0.657213827365,1.147588491,109.4,0.4733,0.2396,0.3216,0.0546,0.1355,0.2748,0.0933,0.3262,0.4768,0.094,0.129,0.8156,0.1297'
_aflow_Strukturbericht 'None'
_aflow_Pearson 'mC36'

_symmetry_space_group_name_H-M "C 1 2/c 1"
_symmetry_Int_Tables_number 15
 
_cell_length_a    9.66200
_cell_length_b    6.35000
_cell_length_c    11.08800
_cell_angle_alpha 90.00000
_cell_angle_beta  109.40000
_cell_angle_gamma 90.00000
 
loop_
_space_group_symop_id
_space_group_symop_operation_xyz
1 x,y,z
2 -x,y,-z+1/2
3 -x,-y,-z
4 x,-y,z+1/2
5 x+1/2,y+1/2,z
6 -x+1/2,y+1/2,-z+1/2
7 -x+1/2,-y+1/2,-z
8 x+1/2,-y+1/2,z+1/2
 
loop_
_atom_site_label
_atom_site_type_symbol
_atom_site_symmetry_multiplicity
_atom_site_Wyckoff_label
_atom_site_fract_x
_atom_site_fract_y
_atom_site_fract_z
_atom_site_occupancy
H2O1 H2O 4 e 0.00000 0.47330 0.25000 1.00000
C1 C 8 f 0.23960 0.32160 0.05460 1.00000
O1 O 8 f 0.13550 0.27480 0.09330 1.00000
O2 O 8 f 0.32620 0.47680 0.09400 1.00000
Rb1 Rb 8 f 0.12900 0.81560 0.12970 1.00000