# CIF file 
data_findsym-output
_audit_creation_method FINDSYM

_chemical_name_mineral 'Brucite'
_chemical_formula_sum 'H2 Mg O2'

loop_
_publ_author_name
 'M. Catti'
 'G. Ferraris'
 'S. Hull'
 'A. Pavese'
_journal_name_full_name
;
 Physics and Chemistry of Minerals
;
_journal_volume 22
_journal_year 1995
_journal_page_first 200
_journal_page_last 206
_publ_Section_title
;
 Static compression and H disorder in brucite, Mg(OH)$_{2}$, to 11 GPa: a powder neutron diffraction study
;

_aflow_title 'Brucite [Mg(OH)$_{2}$] Structure'
_aflow_proto 'A2BC2_hP5_164_d_a_d'
_aflow_params 'a,c/a,z_{2},z_{3}'
_aflow_params_values '3.14979,1.51445016969,0.413,0.2203'
_aflow_Strukturbericht 'None'
_aflow_Pearson 'hP5'

_symmetry_space_group_name_H-M "P -3 2/m 1"
_symmetry_Int_Tables_number 164
 
_cell_length_a    3.14979
_cell_length_b    3.14979
_cell_length_c    4.77020
_cell_angle_alpha 90.00000
_cell_angle_beta  90.00000
_cell_angle_gamma 120.00000
 
loop_
_space_group_symop_id
_space_group_symop_operation_xyz
1 x,y,z
2 -y,x-y,z
3 -x+y,-x,z
4 x-y,-y,-z
5 y,x,-z
6 -x,-x+y,-z
7 -x,-y,-z
8 y,-x+y,-z
9 x-y,x,-z
10 -x+y,y,z
11 -y,-x,z
12 x,x-y,z
 
loop_
_atom_site_label
_atom_site_type_symbol
_atom_site_symmetry_multiplicity
_atom_site_Wyckoff_label
_atom_site_fract_x
_atom_site_fract_y
_atom_site_fract_z
_atom_site_occupancy
Mg1 Mg 1 a 0.00000 0.00000 0.00000 1.00000
H1 H 2 d 0.33333 0.66667 0.41300 1.00000
O1 O 2 d 0.33333 0.66667 0.22030 1.00000