# CIF file 
data_findsym-output
_audit_creation_method FINDSYM

_chemical_name_mineral 'Pu31Rh20'
_chemical_formula_sum 'Pu31 Rh20'

loop_
_publ_author_name
 'D. T. Cromer'
 'A. C. Larson'
_journal_name_full_name
;
 Acta Crystallographica Section B: Structural Science
;
_journal_volume 33
_journal_year 1977
_journal_page_first 2620
_journal_page_last 2627
_publ_Section_title
;
 The Crystal Structure of Pu$_{31}$Pt$_{20}$ and Pu$_{31}$Rh$_{20}$
;

_aflow_title 'Pu$_{31}$Rh$_{20}$ Structure'
_aflow_proto 'A31B20_tI204_140_b2gh3m_ac2fh3l'
_aflow_params 'a,c/a,z_{4},z_{5},z_{6},z_{7},x_{8},x_{9},x_{10},z_{10},x_{11},z_{11},x_{12},z_{12},x_{13},y_{13},z_{13},x_{14},y_{14},z_{14},x_{15},y_{15},z_{15}'
_aflow_params_values '11.076,3.33450794511,0.094,0.1734,0.0756,0.1656,0.1586,0.4035,0.1812,0.0726,0.3417,0.1269,0.1536,0.2109,0.2947,0.4299,0.05,0.2855,0.5774,0.1346,0.2819,0.4125,0.2114'
_aflow_Strukturbericht 'None'
_aflow_Pearson 'tI204'

_symmetry_space_group_name_H-M "I 4/m 2/c 2/m"
_symmetry_Int_Tables_number 140
 
_cell_length_a    11.07600
_cell_length_b    11.07600
_cell_length_c    36.93301
_cell_angle_alpha 90.00000
_cell_angle_beta  90.00000
_cell_angle_gamma 90.00000
 
loop_
_space_group_symop_id
_space_group_symop_operation_xyz
1 x,y,z
2 x,-y,-z+1/2
3 -x,y,-z+1/2
4 -x,-y,z
5 -y,-x,-z+1/2
6 -y,x,z
7 y,-x,z
8 y,x,-z+1/2
9 -x,-y,-z
10 -x,y,z+1/2
11 x,-y,z+1/2
12 x,y,-z
13 y,x,z+1/2
14 y,-x,-z
15 -y,x,-z
16 -y,-x,z+1/2
17 x+1/2,y+1/2,z+1/2
18 x+1/2,-y+1/2,-z
19 -x+1/2,y+1/2,-z
20 -x+1/2,-y+1/2,z+1/2
21 -y+1/2,-x+1/2,-z
22 -y+1/2,x+1/2,z+1/2
23 y+1/2,-x+1/2,z+1/2
24 y+1/2,x+1/2,-z
25 -x+1/2,-y+1/2,-z+1/2
26 -x+1/2,y+1/2,z
27 x+1/2,-y+1/2,z
28 x+1/2,y+1/2,-z+1/2
29 y+1/2,x+1/2,z
30 y+1/2,-x+1/2,-z+1/2
31 -y+1/2,x+1/2,-z+1/2
32 -y+1/2,-x+1/2,z
 
loop_
_atom_site_label
_atom_site_type_symbol
_atom_site_symmetry_multiplicity
_atom_site_Wyckoff_label
_atom_site_fract_x
_atom_site_fract_y
_atom_site_fract_z
_atom_site_occupancy
Rh1 Rh 4 a 0.00000 0.00000 0.25000 1.00000
Pu1 Pu 4 b 0.00000 0.50000 0.25000 1.00000
Rh2 Rh 4 c 0.00000 0.00000 0.00000 1.00000
Rh3 Rh 8 f 0.00000 0.00000 0.09400 1.00000
Rh4 Rh 8 f 0.00000 0.00000 0.17340 1.00000
Pu2 Pu 8 g 0.00000 0.50000 0.07560 1.00000
Pu3 Pu 8 g 0.00000 0.50000 0.16560 1.00000
Pu4 Pu 8 h 0.15860 0.65860 0.00000 1.00000
Rh5 Rh 8 h 0.40350 0.90350 0.00000 1.00000
Rh6 Rh 16 l 0.18120 0.68120 0.07260 1.00000
Rh7 Rh 16 l 0.34170 0.84170 0.12690 1.00000
Rh8 Rh 16 l 0.15360 0.65360 0.21090 1.00000
Pu5 Pu 32 m 0.29470 0.42990 0.05000 1.00000
Pu6 Pu 32 m 0.28550 0.57740 0.13460 1.00000
Pu7 Pu 32 m 0.28190 0.41250 0.21140 1.00000