# CIF file 
data_findsym-output
_audit_creation_method FINDSYM

_chemical_name_mineral 'Shandite'
_chemical_formula_sum 'Ni3 Pb2 S2'

loop_
_publ_author_name
 'R. Weihrich'
 'S. F. Matar'
 'V. Eyert'
 'F. Rau'
 'M. Zabel'
 'M. Andratschke'
 'I. Anusca'
 'T. Bernert'
_journal_name_full_name
;
 Progress in Solid State Chemistry
;
_journal_volume 35
_journal_year 2007
_journal_page_first 309
_journal_page_last 322
_publ_Section_title
;
 Structure, ordering, and bonding of half antiperovskites: PbNi$_{3/2}$S and BiPd$_{3/2}$S
;

_aflow_title 'Shandite (Ni$_{3}$Pb$_{2}$S$_{2}$) Structure'
_aflow_proto 'A3B2C2_hR7_166_d_ab_c'
_aflow_params 'a,c/a,x_{3}'
_aflow_params_values '5.595,2.43538873995,0.275'
_aflow_Strukturbericht 'None'
_aflow_Pearson 'hR7'

_symmetry_space_group_name_H-M "R -3 2/m (hexagonal axes)"
_symmetry_Int_Tables_number 166
 
_cell_length_a    5.59500
_cell_length_b    5.59500
_cell_length_c    13.62600
_cell_angle_alpha 90.00000
_cell_angle_beta  90.00000
_cell_angle_gamma 120.00000
 
loop_
_space_group_symop_id
_space_group_symop_operation_xyz
1 x,y,z
2 -y,x-y,z
3 -x+y,-x,z
4 y,x,-z
5 -x,-x+y,-z
6 x-y,-y,-z
7 -x,-y,-z
8 y,-x+y,-z
9 x-y,x,-z
10 -y,-x,z
11 x,x-y,z
12 -x+y,y,z
13 x+1/3,y+2/3,z+2/3
14 -y+1/3,x-y+2/3,z+2/3
15 -x+y+1/3,-x+2/3,z+2/3
16 y+1/3,x+2/3,-z+2/3
17 -x+1/3,-x+y+2/3,-z+2/3
18 x-y+1/3,-y+2/3,-z+2/3
19 -x+1/3,-y+2/3,-z+2/3
20 y+1/3,-x+y+2/3,-z+2/3
21 x-y+1/3,x+2/3,-z+2/3
22 -y+1/3,-x+2/3,z+2/3
23 x+1/3,x-y+2/3,z+2/3
24 -x+y+1/3,y+2/3,z+2/3
25 x+2/3,y+1/3,z+1/3
26 -y+2/3,x-y+1/3,z+1/3
27 -x+y+2/3,-x+1/3,z+1/3
28 y+2/3,x+1/3,-z+1/3
29 -x+2/3,-x+y+1/3,-z+1/3
30 x-y+2/3,-y+1/3,-z+1/3
31 -x+2/3,-y+1/3,-z+1/3
32 y+2/3,-x+y+1/3,-z+1/3
33 x-y+2/3,x+1/3,-z+1/3
34 -y+2/3,-x+1/3,z+1/3
35 x+2/3,x-y+1/3,z+1/3
36 -x+y+2/3,y+1/3,z+1/3
 
loop_
_atom_site_label
_atom_site_type_symbol
_atom_site_symmetry_multiplicity
_atom_site_Wyckoff_label
_atom_site_fract_x
_atom_site_fract_y
_atom_site_fract_z
_atom_site_occupancy
Pb1 Pb 3 a 0.00000 0.00000 0.00000 1.00000
Pb2 Pb 3 b 0.00000 0.00000 0.50000 1.00000
S1 S 6 c 0.00000 0.00000 0.27500 1.00000
Ni1 Ni 9 d 0.50000 0.00000 0.50000 1.00000