# CIF file 
data_findsym-output
_audit_creation_method FINDSYM

_chemical_name_mineral 'Ni3Si2'
_chemical_formula_sum 'Ni3 Si2'

loop_
_publ_author_name
 'G. Pilstr\"{o}m'
_journal_name_full_name
;
 Acta Chemica Scandinavica
;
_journal_volume 15
_journal_year 1961
_journal_page_first 893
_journal_page_last 902
_publ_Section_title
;
 The Crystal Structure of Ni$_{3}$Si$_{2}$ with some Notes on Ni$_{5}$Si$_{2}$
;

_aflow_title 'Ni$_{3}$Si$_{2}$ Structure'
_aflow_proto 'A3B2_oC80_36_4a4b_2a3b'
_aflow_params 'a,b/a,c/a,y_{1},z_{1},y_{2},z_{2},y_{3},z_{3},y_{4},z_{4},y_{5},z_{5},y_{6},z_{6},x_{7},y_{7},z_{7},x_{8},y_{8},z_{8},x_{9},y_{9},z_{9},x_{10},y_{10},z_{10},x_{11},y_{11},z_{11},x_{12},y_{12},z_{12},x_{13},y_{13},z_{13}'
_aflow_params_values '12.22901,0.883554760361,0.566194646991,0.0,0.0,0.2345,0.024,0.233,0.4,0.3814,0.714,0.157,0.712,0.409,0.218,0.1732,0.1177,0.518,0.1723,0.1189,-0.1,0.1972,0.2467,0.217,0.1824,0.4975,0.225,0.12,0.059,0.214,0.152,0.344,0.506,0.151,0.343,-0.08'
_aflow_Strukturbericht 'None'
_aflow_Pearson 'oC80'

_symmetry_space_group_name_H-M "C m c 21"
_symmetry_Int_Tables_number 36
 
_cell_length_a    12.22901
_cell_length_b    10.80500
_cell_length_c    6.92400
_cell_angle_alpha 90.00000
_cell_angle_beta  90.00000
_cell_angle_gamma 90.00000
 
loop_
_space_group_symop_id
_space_group_symop_operation_xyz
1 x,y,z
2 -x,-y,z+1/2
3 -x,y,z
4 x,-y,z+1/2
5 x+1/2,y+1/2,z
6 -x+1/2,-y+1/2,z+1/2
7 -x+1/2,y+1/2,z
8 x+1/2,-y+1/2,z+1/2
 
loop_
_atom_site_label
_atom_site_type_symbol
_atom_site_symmetry_multiplicity
_atom_site_Wyckoff_label
_atom_site_fract_x
_atom_site_fract_y
_atom_site_fract_z
_atom_site_occupancy
Ni1 Ni 4 a 0.00000 0.00000 0.00000 1.00000
Ni2 Ni 4 a 0.00000 0.23450 0.02400 1.00000
Ni3 Ni 4 a 0.00000 0.23300 0.40000 1.00000
Ni4 Ni 4 a 0.00000 0.38140 0.71400 1.00000
Si1 Si 4 a 0.00000 0.15700 0.71200 1.00000
Si2 Si 4 a 0.00000 0.40900 0.21800 1.00000
Ni5 Ni 8 b 0.17320 0.11770 0.51800 1.00000
Ni6 Ni 8 b 0.17230 0.11890 -0.10000 1.00000
Ni7 Ni 8 b 0.19720 0.24670 0.21700 1.00000
Ni8 Ni 8 b 0.18240 0.49750 0.22500 1.00000
Si3 Si 8 b 0.12000 0.05900 0.21400 1.00000
Si4 Si 8 b 0.15200 0.34400 0.50600 1.00000
Si5 Si 8 b 0.15100 0.34300 -0.08000 1.00000