# CIF file 
data_findsym-output
_audit_creation_method FINDSYM

_chemical_name_mineral 'Catapleiite'
_chemical_formula_sum '(H2O)3 Na2 O9 Si3 Zr'

loop_
_publ_author_name
 'B. Brunowski'
_journal_name_full_name
;
 Acta Physicochimica U.R.S.S.
;
_journal_volume 5
_journal_year 1936
_journal_page_first 863
_journal_page_last 892
_publ_Section_title
;
 Die Struktur des Katapleits
;

# Found in Strukturbericht Band V 1937, 1940

_aflow_title '$S3_{4}$ (II) (Catapleiite, Na$_{2}$Zr(SiO$_{2}$)$_{3}$$\cdot$ H$_{2}$O) ({\em{obsolete}}) Structure'
_aflow_proto 'A3B2C9D3E_hP36_194_g_f_hk_h_a'
_aflow_params 'a,c/a,z_{2},x_{4},x_{5},x_{6},z_{6}'
_aflow_params_values '7.39,1.3599458728,0.08,0.47,0.2,0.136,0.125'
_aflow_Strukturbericht '$S3_{4}$ (II)'
_aflow_Pearson 'hP36'

_symmetry_space_group_name_H-M "P 63/m 2/m 2/c"
_symmetry_Int_Tables_number 194
 
_cell_length_a    7.39000
_cell_length_b    7.39000
_cell_length_c    10.05000
_cell_angle_alpha 90.00000
_cell_angle_beta  90.00000
_cell_angle_gamma 120.00000
 
loop_
_space_group_symop_id
_space_group_symop_operation_xyz
1 x,y,z
2 x-y,x,z+1/2
3 -y,x-y,z
4 -x,-y,z+1/2
5 -x+y,-x,z
6 y,-x+y,z+1/2
7 x-y,-y,-z
8 x,x-y,-z+1/2
9 y,x,-z
10 -x+y,y,-z+1/2
11 -x,-x+y,-z
12 -y,-x,-z+1/2
13 -x,-y,-z
14 -x+y,-x,-z+1/2
15 y,-x+y,-z
16 x,y,-z+1/2
17 x-y,x,-z
18 -y,x-y,-z+1/2
19 -x+y,y,z
20 -x,-x+y,z+1/2
21 -y,-x,z
22 x-y,-y,z+1/2
23 x,x-y,z
24 y,x,z+1/2
 
loop_
_atom_site_label
_atom_site_type_symbol
_atom_site_symmetry_multiplicity
_atom_site_Wyckoff_label
_atom_site_fract_x
_atom_site_fract_y
_atom_site_fract_z
_atom_site_occupancy
Zr1 Zr 2 a 0.00000 0.00000 0.00000 1.00000
Na1 Na 4 f 0.33333 0.66667 0.08000 1.00000
H2O1 H2O 6 g 0.50000 0.00000 0.00000 0.66667
O1 O 6 h 0.47000 0.94000 0.25000 1.00000
Si1 Si 6 h 0.20000 0.40000 0.25000 1.00000
O2 O 12 k 0.13600 0.27200 0.12500 1.00000
