# CIF file 
data_findsym-output
_audit_creation_method FINDSYM

_chemical_name_mineral 'Co3H2O10Se3'
_chemical_formula_sum 'Co3 H2 O10 Se3'

loop_
_publ_author_name
 'M. Wildner'
_journal_name_full_name
;
 Monatshefte f{\"u}r Chemie - Chemical Monthly
;
_journal_volume 122
_journal_year 1991
_journal_page_first 585
_journal_page_last 594
_publ_Section_title
;
 Crystal structures of Co$_{3}$(SeO$_{3}$)$_{3}$$\cdot$H$_{2}$O and Ni$_{3}$(SeO$_{3}$)$_{3}$$\cdot$H$_{2}$O, two new isotypic compounds
;

# Found in K. M. Taddei et al., Tunable magnetic order in low-symmetry SeO$_{3}$ ligand linked $TM$$_{3}$(SeO$_{3}$)$_{3}$H$_{2}$O ($TM$ = Mn, Co and Ni) compounds, Phys. Rev. Mater. 4, 024410 (2020).

_aflow_title 'Co$_{3}$(SeO$_{3}$)$_{3}$$\cdot$H$_{2}$O Structure'
_aflow_proto 'A3B2C10D3_aP36_2_ah2i_2i_10i_3i'
_aflow_params 'a,b/a,c/a,\alpha,\beta,\gamma,x_{3},y_{3},z_{3},x_{4},y_{4},z_{4},x_{5},y_{5},z_{5},x_{6},y_{6},z_{6},x_{7},y_{7},z_{7},x_{8},y_{8},z_{8},x_{9},y_{9},z_{9},x_{10},y_{10},z_{10},x_{11},y_{11},z_{11},x_{12},y_{12},z_{12},x_{13},y_{13},z_{13},x_{14},y_{14},z_{14},x_{15},y_{15},z_{15},x_{16},y_{16},z_{16},x_{17},y_{17},z_{17},x_{18},y_{18},z_{18},x_{19},y_{19},z_{19}'
_aflow_params_values '8.102,1.0144408788,1.05801036781,69.15,62.88,67.23,0.65388,0.03726,0.79895,0.71664,0.85636,0.39005,0.004,0.867,0.704,-0.065,0.823,0.624,0.3023,0.7124,0.3858,0.5468,0.6953,0.5643,0.2128,0.8964,0.7589,0.5375,-0.0553,0.6739,-0.0504,0.7241,0.4515,0.7083,0.518,0.2467,0.5988,0.8268,0.0273,0.8667,0.7852,0.1424,0.1894,0.8592,0.1263,-0.0821,0.8725,0.6893,0.56457,0.23365,0.23877,0.79662,0.66737,0.06492,0.17624,0.66966,0.29811'
_aflow_Strukturbericht 'None'
_aflow_Pearson 'aP36'

_symmetry_space_group_name_H-M "P -1"
_symmetry_Int_Tables_number 2
 
_cell_length_a    8.10200
_cell_length_b    8.21900
_cell_length_c    8.57200
_cell_angle_alpha 69.15000
_cell_angle_beta  62.88000
_cell_angle_gamma 67.23000
 
loop_
_space_group_symop_id
_space_group_symop_operation_xyz
1 x,y,z
2 -x,-y,-z
 
loop_
_atom_site_label
_atom_site_type_symbol
_atom_site_symmetry_multiplicity
_atom_site_Wyckoff_label
_atom_site_fract_x
_atom_site_fract_y
_atom_site_fract_z
_atom_site_occupancy
Co1 Co 1 a 0.00000 0.00000 0.00000 1.00000
Co2 Co 1 h 0.50000 0.50000 0.50000 1.00000
Co3 Co 2 i 0.65388 0.03726 0.79895 1.00000
Co4 Co 2 i 0.71664 0.85636 0.39005 1.00000
H1 H 2 i 0.00400 0.86700 0.70400 1.00000
H2 H 2 i -0.06500 0.82300 0.62400 1.00000
O1 O 2 i 0.30230 0.71240 0.38580 1.00000
O2 O 2 i 0.54680 0.69530 0.56430 1.00000
O3 O 2 i 0.21280 0.89640 0.75890 1.00000
O4 O 2 i 0.53750 -0.05530 0.67390 1.00000
O5 O 2 i -0.05040 0.72410 0.45150 1.00000
O6 O 2 i 0.70830 0.51800 0.24670 1.00000
O7 O 2 i 0.59880 0.82680 0.02730 1.00000
O8 O 2 i 0.86670 0.78520 0.14240 1.00000
O9 O 2 i 0.18940 0.85920 0.12630 1.00000
O10 O 2 i -0.08210 0.87250 0.68930 1.00000
Se1 Se 2 i 0.56457 0.23365 0.23877 1.00000
Se2 Se 2 i 0.79662 0.66737 0.06492 1.00000
Se3 Se 2 i 0.17624 0.66966 0.29811 1.00000
