# CIF file 
data_findsym-output
_audit_creation_method FINDSYM

_chemical_name_mineral 'I3S24Sb'
_chemical_formula_sum 'I3 S24 Sb'

loop_
_publ_author_name
 'T. Bjorvatten'
 'O. Hassel'
 'A. Lindheim'
_journal_name_full_name
;
 Acta Chemica Scandinavica
;
_journal_volume 17
_journal_year 1963
_journal_page_first 689
_journal_page_last 702
_publ_Section_title
;
 Crystal Structure of the Addition Compound SbI$_{3}$:3S$_{8}$
;

_aflow_title 'SbI$_{3}$S$_{24}$ Structure'
_aflow_proto 'A3B24C_hR28_160_b_2b3c_a'
_aflow_params 'a,c/a,x_{1},x_{2},z_{2},x_{3},z_{3},x_{4},z_{4},x_{5},y_{5},z_{5},x_{6},y_{6},z_{6},x_{7},y_{7},z_{7}'
_aflow_params_values '24.817,0.178422049402,0.3146,-0.0551,0.1102,0.5891,-0.00921,0.4515,0.17749,0.8641,-0.2688,0.24779,0.6198,-0.5701,0.08749,0.7609,-0.3733,0.37359'
_aflow_Strukturbericht 'None'
_aflow_Pearson 'hR28'

_symmetry_space_group_name_H-M "R 3 m (hexagonal axes)"
_symmetry_Int_Tables_number 160
 
_cell_length_a    24.81700
_cell_length_b    24.81700
_cell_length_c    4.42790
_cell_angle_alpha 90.00000
_cell_angle_beta  90.00000
_cell_angle_gamma 120.00000
 
loop_
_space_group_symop_id
_space_group_symop_operation_xyz
1 x,y,z
2 -y,x-y,z
3 -x+y,-x,z
4 -y,-x,z
5 x,x-y,z
6 -x+y,y,z
7 x+1/3,y+2/3,z+2/3
8 -y+1/3,x-y+2/3,z+2/3
9 -x+y+1/3,-x+2/3,z+2/3
10 -y+1/3,-x+2/3,z+2/3
11 x+1/3,x-y+2/3,z+2/3
12 -x+y+1/3,y+2/3,z+2/3
13 x+2/3,y+1/3,z+1/3
14 -y+2/3,x-y+1/3,z+1/3
15 -x+y+2/3,-x+1/3,z+1/3
16 -y+2/3,-x+1/3,z+1/3
17 x+2/3,x-y+1/3,z+1/3
18 -x+y+2/3,y+1/3,z+1/3
 
loop_
_atom_site_label
_atom_site_type_symbol
_atom_site_symmetry_multiplicity
_atom_site_Wyckoff_label
_atom_site_fract_x
_atom_site_fract_y
_atom_site_fract_z
_atom_site_occupancy
Sb1 Sb 3 a 0.00000 0.00000 0.31460 1.00000
I1 I 9 b -0.05510 0.05510 0.00000 1.00000
S1 S 9 b 0.53277 0.46723 0.05633 1.00000
S2 S 9 b 0.42467 0.57533 0.02683 1.00000
S3 S 18 c 0.58307 0.54983 0.28103 1.00000
S4 S 18 c 0.57407 0.61583 0.04573 1.00000
S5 S 18 c 0.50717 0.62703 0.25373 1.00000