# CIF file 
data_findsym-output
_audit_creation_method FINDSYM

_chemical_name_mineral 'Chrysotile'
_chemical_formula_sum 'Mg3 O5 (OH)4 Si2'

loop_
_publ_author_name
 'G. Falini'
 'E. Foresti'
 'M. Gazzano'
 'A. F. Gualtieri'
 'M. Leoni'
 'I  G. Lesci'
 'N. Roveri'
_journal_name_full_name
;
 Chemistry - A European Journal
;
_journal_volume 10
_journal_year 2004
_journal_page_first 3043
_journal_page_last 3049
_publ_Section_title
;
 Tubular-Shaped Stoichiometric Chrysotile Nanocrystals
;

_aflow_title 'Chrysotile (Mg$_{3}$Si$_{2}$O$_{5}$(OH)$_{4}$) Structure'
_aflow_proto 'A3B5C4D2_mC56_9_3a_5a_4a_2a'
_aflow_params 'a,b/a,c/a,\beta,x_{1},y_{1},z_{1},x_{2},y_{2},z_{2},x_{3},y_{3},z_{3},x_{4},y_{4},z_{4},x_{5},y_{5},z_{5},x_{6},y_{6},z_{6},x_{7},y_{7},z_{7},x_{8},y_{8},z_{8},x_{9},y_{9},z_{9},x_{10},y_{10},z_{10},x_{11},y_{11},z_{11},x_{12},y_{12},z_{12},x_{13},y_{13},z_{13},x_{14},y_{14},z_{14}'
_aflow_params_values '5.34,1.73052434457,2.75074906367,93.66,0.8852,0.198,0.2303,0.3747,0.3771,0.2327,0.8818,0.5235,0.2204,0.0726,0.1978,0.0,0.2387,0.475,0.0023,0.7395,0.4214,0.0063,0.0438,0.3596,0.156,0.532,0.537,0.155,0.7299,0.363,0.2878,0.2395,0.197,0.2791,0.5334,0.2053,0.1807,0.2025,0.5416,0.296,0.0257,0.3641,0.041,0.5208,0.5335,0.04'
_aflow_Strukturbericht 'None'
_aflow_Pearson 'mC56'

_symmetry_space_group_name_H-M "C 1 c 1"
_symmetry_Int_Tables_number 9
 
_cell_length_a    5.34000
_cell_length_b    9.24100
_cell_length_c    14.68900
_cell_angle_alpha 90.00000
_cell_angle_beta  93.66000
_cell_angle_gamma 90.00000
 
loop_
_space_group_symop_id
_space_group_symop_operation_xyz
1 x,y,z
2 x,-y,z+1/2
3 x+1/2,y+1/2,z
4 x+1/2,-y+1/2,z+1/2
 
loop_
_atom_site_label
_atom_site_type_symbol
_atom_site_symmetry_multiplicity
_atom_site_Wyckoff_label
_atom_site_fract_x
_atom_site_fract_y
_atom_site_fract_z
_atom_site_occupancy
Mg1 Mg 4 a 0.88520 0.19800 0.23030 1.00000
Mg2 Mg 4 a 0.37470 0.37710 0.23270 1.00000
Mg3 Mg 4 a 0.88180 0.52350 0.22040 1.00000
O1 O 4 a 0.07260 0.19780 0.00000 1.00000
O2 O 4 a 0.23870 0.47500 0.00230 1.00000
O3 O 4 a 0.73950 0.42140 0.00630 1.00000
O4 O 4 a 0.04380 0.35960 0.15600 1.00000
O5 O 4 a 0.53200 0.53700 0.15500 1.00000
OH1 OH 4 a 0.72990 0.36300 0.28780 1.00000
OH2 OH 4 a 0.23950 0.19700 0.27910 1.00000
OH3 OH 4 a 0.53340 0.20530 0.18070 1.00000
OH4 OH 4 a 0.20250 0.54160 0.29600 1.00000
Si1 Si 4 a 0.02570 0.36410 0.04100 1.00000
Si2 Si 4 a 0.52080 0.53350 0.04000 1.00000