# AFLOW.org Repositories
# TaTi/A3B5_oC32_38_abce_abcdf-001.AB params=6.5421326204,1.41421356237,1.41421356237,0.5,-0.0,-0.0,0.5,0.25,0.75,0.25,0.25,0.75,0.25,0.75,0.25,0.25,0.75,-0.0 SG=38 [ANRL doi: 10.1016/j.commatsci.2017.01.017 (part 1), doi: 10.1016/j.commatsci.2018.10.043 (part 2)]
data_TaTi
_pd_phase_name A3B5_oC32_38_abce_abcdf-001.AB

_chemical_name_mineral 'Ta3Ti5'
_chemical_formula_sum 'Ta3 Ti5'

loop_
_publ_author_name
 'T. Chakraborty'
 'J. Rogal'
 'R. Drautz'
_journal_name_full_name
;
 Physical Review B
;
_journal_volume 94
_journal_year 2016
_journal_page_first 224104
_journal_page_last 224104
_publ_Section_title
;
 Unraveling the composition dependence of the martensitic transformation temperature: A first-principles study of Ti-Ta alloys
;

_aflow_title 'Ta$_{3}$Ti$_{5}$ (BCC SQS-16) Structure'
_aflow_proto 'A3B5_oC32_38_abce_abcdf'
_aflow_params 'a,b/a,c/a,z_{1},z_{2},z_{3},z_{4},x_{5},z_{5},x_{6},z_{6},y_{7},z_{7},y_{8},z_{8},x_{9},y_{9},z_{9}'
_aflow_params_values '6.5421326204,1.41421356237,1.41421356237,0.5,0.0,0.0,0.5,0.25,0.25,0.25,0.75,0.75,0.25,0.75,0.25,0.25,0.25,0.0'
_aflow_Strukturbericht 'None'
_aflow_Pearson 'oC32'

_cell_length_a  6.5421326204
_cell_length_b  9.2519726786
_cell_length_c  9.2519726786
_cell_angle_alpha  90.0000000000
_cell_angle_beta  90.0000000000
_cell_angle_gamma  90.0000000000
_symmetry_space_group_name_H-M  'Amm2'
_symmetry_Int_Tables_Number  38
loop_
_symmetry_equiv_pos_site_id
_symmetry_equiv_pos_as_xyz
  1  x,y,z
  2  -x,-y,z
  3  x,-y,z
  4  -x,y,z
  5  x,y+1/2,z+1/2
  6  -x,-y+1/2,z+1/2
  7  x,-y+1/2,z+1/2
  8  -x,y+1/2,z+1/2
loop_
 _atom_site_label
 _atom_site_occupancy
 _atom_site_fract_x
 _atom_site_fract_y
 _atom_site_fract_z
 _atom_site_thermal_displace_type
 _atom_site_B_iso_or_equiv
 _atom_site_type_symbol
 _atom_site_symmetry_multiplicity
 _atom_site_Wyckoff_label
Ta1 1.0000000000 0.0000000000 -0.0000000000 0.5000000000 Biso 1.0 Ta 2 a
Ti1 1.0000000000 0.0000000000 0.0000000000 0.0000000000 Biso 1.0 Ti 2 a
Ta2 1.0000000000 0.5000000000 0.0000000000 0.0000000000 Biso 1.0 Ta 2 b
Ti2 1.0000000000 0.5000000000 -0.0000000000 0.5000000000 Biso 1.0 Ti 2 b
Ta3 1.0000000000 0.2500000000 -0.0000000000 0.2500000000 Biso 1.0 Ta 4 c
Ti3 1.0000000000 0.2500000000 -0.0000000000 0.7500000000 Biso 1.0 Ti 4 c
Ti4 1.0000000000 0.0000000000 0.7500000000 0.2500000000 Biso 1.0 Ti 4 d
Ta4 1.0000000000 0.5000000000 0.7500000000 0.2500000000 Biso 1.0 Ta 4 e
Ti5 1.0000000000 0.2500000000 0.2500000000 0.0000000000 Biso 1.0 Ti 8 f