# CIF file 
data_findsym-output
_audit_creation_method FINDSYM

_chemical_name_mineral 'Fe3O7P'
_chemical_formula_sum 'Fe3 O7 P'

loop_
_publ_author_name
 'A. Modaressi'
 'A. Courtois'
 'R. Gerardin'
 'B. Malaman'
 'C. Gleitzer'
_journal_name_full_name
;
 Journal of Solid State Chemistry
;
_journal_volume 47
_journal_year 1983
_journal_page_first 245
_journal_page_last 255
_publ_Section_title
;
 Fe$_{3}$PO$_{7}$, Un cas de coordinence 5 du fer trivalent, etude structurale et magnetique
;

# Found in C. L. Sarkis et al., Partial antiferromagnetic helical order in single-crystal Fe$_{3}$PO$_{4}$O$_{3}$, Phys. Rev. B 101, 184417 (2020)

_aflow_title 'Fe$_{3}$PO$_{7}$ Structure'
_aflow_proto 'A3B7C_hR11_160_b_a2b_a'
_aflow_params 'a,c/a,x_{1},x_{2},x_{3},z_{3},x_{4},z_{4},x_{5},z_{5}'
_aflow_params_values '8.006,0.857232075943,0.2289,0.0,0.5395,0.14849,0.3895,0.76679,0.833,0.144'
_aflow_Strukturbericht 'None'
_aflow_Pearson 'hR11'

_symmetry_space_group_name_H-M "R 3 m (hexagonal axes)"
_symmetry_Int_Tables_number 160
 
_cell_length_a    8.00600
_cell_length_b    8.00600
_cell_length_c    6.86300
_cell_angle_alpha 90.00000
_cell_angle_beta  90.00000
_cell_angle_gamma 120.00000
 
loop_
_space_group_symop_id
_space_group_symop_operation_xyz
1 x,y,z
2 -y,x-y,z
3 -x+y,-x,z
4 -y,-x,z
5 x,x-y,z
6 -x+y,y,z
7 x+1/3,y+2/3,z+2/3
8 -y+1/3,x-y+2/3,z+2/3
9 -x+y+1/3,-x+2/3,z+2/3
10 -y+1/3,-x+2/3,z+2/3
11 x+1/3,x-y+2/3,z+2/3
12 -x+y+1/3,y+2/3,z+2/3
13 x+2/3,y+1/3,z+1/3
14 -y+2/3,x-y+1/3,z+1/3
15 -x+y+2/3,-x+1/3,z+1/3
16 -y+2/3,-x+1/3,z+1/3
17 x+2/3,x-y+1/3,z+1/3
18 -x+y+2/3,y+1/3,z+1/3
 
loop_
_atom_site_label
_atom_site_type_symbol
_atom_site_symmetry_multiplicity
_atom_site_Wyckoff_label
_atom_site_fract_x
_atom_site_fract_y
_atom_site_fract_z
_atom_site_occupancy
O1 O 3 a 0.00000 0.00000 0.22890 1.00000
P1 P 3 a 0.00000 0.00000 0.00000 1.00000
Fe1 Fe 9 b 0.46367 0.53633 0.07583 1.00000
O2 O 9 b 0.20757 0.79243 0.18193 1.00000
O3 O 9 b 0.56300 0.43700 0.27000 1.00000
