# CIF file 
data_findsym-output
_audit_creation_method FINDSYM

_chemical_name_mineral 'O3W'
_chemical_formula_sum 'O3 W'

loop_
_publ_author_name
 'P. M. Woodward'
 'A. W. Sleight'
 'T. Vogt'
_journal_name_full_name
;
 Journal of Solid State Chemistry
;
_journal_volume 131
_journal_year 1997
_journal_page_first 9
_journal_page_last 17
_publ_Section_title
;
 Ferroelectric Tungsten Trioxide
;

_aflow_title '$\alpha$-WO$_{3}$ Structure'
_aflow_proto 'A3B_tP16_130_cf_c'
_aflow_params 'a,c/a,z_{1},z_{2},x_{3}'
_aflow_params_values '5.2759,1.48717754317,0.0028,0.2847,0.0287'
_aflow_Strukturbericht 'None'
_aflow_Pearson 'tP16'

_symmetry_space_group_name_H-M "P 4/n 21/c 2/c (origin choice 2)"
_symmetry_Int_Tables_number 130
 
_cell_length_a    5.27590
_cell_length_b    5.27590
_cell_length_c    7.84620
_cell_angle_alpha 90.00000
_cell_angle_beta  90.00000
_cell_angle_gamma 90.00000
 
loop_
_space_group_symop_id
_space_group_symop_operation_xyz
1 x,y,z
2 x+1/2,-y,-z+1/2
3 -x,y+1/2,-z+1/2
4 -x+1/2,-y+1/2,z
5 -y,-x,-z+1/2
6 -y+1/2,x,z
7 y,-x+1/2,z
8 y+1/2,x+1/2,-z+1/2
9 -x,-y,-z
10 -x+1/2,y,z+1/2
11 x,-y+1/2,z+1/2
12 x+1/2,y+1/2,-z
13 y,x,z+1/2
14 y+1/2,-x,-z
15 -y,x+1/2,-z
16 -y+1/2,-x+1/2,z+1/2
 
loop_
_atom_site_label
_atom_site_type_symbol
_atom_site_symmetry_multiplicity
_atom_site_Wyckoff_label
_atom_site_fract_x
_atom_site_fract_y
_atom_site_fract_z
_atom_site_occupancy
O1 O 4 c 0.25000 0.25000 0.00280 1.00000
W1 W 4 c 0.25000 0.25000 0.28470 1.00000
O2 O 8 f 0.02870 -0.02870 0.25000 1.00000