# CIF file 
data_findsym-output
_audit_creation_method FINDSYM

_chemical_name_mineral 'H3LiO2'
_chemical_formula_sum 'H3 Li O2'

loop_
_publ_author_name
 'N. W. Alcock'
_journal_name_full_name
;
 Acta Crystallographica Section B: Structural Science
;
_journal_volume 27
_journal_year 1971
_journal_page_first 1682
_journal_page_last 1683
_publ_Section_title
;
 Refinement of the crystal structure of lithium hydroxide monohydrate
;

_aflow_title 'LiOH$\cdot$H$_{2}$O ($B36$) Structure'
_aflow_proto 'A3BC2_mC24_12_ij_h_gi'
_aflow_params 'a,b/a,c/a,\beta,y_{1},y_{2},x_{3},z_{3},x_{4},z_{4},x_{5},y_{5},z_{5}'
_aflow_params_values '7.37,1.12075983718,0.432835820896,110.3,0.2066,0.3474,0.237,0.631,0.2857,0.3952,0.107,0.118,0.004'
_aflow_Strukturbericht '$B36$'
_aflow_Pearson 'mC24'

_symmetry_space_group_name_H-M "C 1 2/m 1"
_symmetry_Int_Tables_number 12
 
_cell_length_a    7.37000
_cell_length_b    8.26000
_cell_length_c    3.19000
_cell_angle_alpha 90.00000
_cell_angle_beta  110.30000
_cell_angle_gamma 90.00000
 
loop_
_space_group_symop_id
_space_group_symop_operation_xyz
1 x,y,z
2 -x,y,-z
3 -x,-y,-z
4 x,-y,z
5 x+1/2,y+1/2,z
6 -x+1/2,y+1/2,-z
7 -x+1/2,-y+1/2,-z
8 x+1/2,-y+1/2,z
 
loop_
_atom_site_label
_atom_site_type_symbol
_atom_site_symmetry_multiplicity
_atom_site_Wyckoff_label
_atom_site_fract_x
_atom_site_fract_y
_atom_site_fract_z
_atom_site_occupancy
O1 O 4 g 0.00000 0.20660 0.00000 1.00000
Li1 Li 4 h 0.00000 0.34740 0.50000 1.00000
H1 H 4 i 0.23700 0.00000 0.63100 1.00000
O2 O 4 i 0.28570 0.00000 0.39520 1.00000
H2 H 8 j 0.10700 0.11800 0.00400 1.00000