# CIF file 
data_findsym-output
_audit_creation_method FINDSYM

_chemical_name_mineral 'Cd45Sm11'
_chemical_formula_sum 'Cd45 Sm11'

loop_
_publ_author_name
 'M. L. Fornasini'
 'B. Chabot'
 'E. Parth\\'{e}'
_journal_name_full_name
;
 Acta Crystallographica Section B: Structural Science
;
_journal_volume 34
_journal_year 1978
_journal_page_first 2093
_journal_page_last 2099
_publ_Section_title
;
 The crystal structure of Sm$_{11}$Cd$_{45}$ with $\gamma$-brass and $\alpha$-Mn clusters
;

_aflow_title 'Sm$_{11}$Cd$_{45}$ Structure'
_aflow_proto 'A45B11_cF448_216_bd4efg5h_ac2eh'
_aflow_params 'a,x_{5},x_{6},x_{7},x_{8},x_{9},x_{10},x_{11},x_{12},x_{13},z_{13},x_{14},z_{14},x_{15},z_{15},x_{16},z_{16},x_{17},z_{17},x_{18},z_{18}'
_aflow_params_values '21.699,0.0834,0.9126,0.1636,0.8297,0.4059,0.6618,0.1573,0.0895,0.2958,0.3904,0.4377,0.2627,0.5455,0.6403,0.6728,0.5123,0.9161,0.7637,0.1735,0.0142'
_aflow_Strukturbericht 'None'
_aflow_Pearson 'cF448'

_symmetry_space_group_name_H-M "F -4 3 m"
_symmetry_Int_Tables_number 216
 
_cell_length_a    21.69900
_cell_length_b    21.69900
_cell_length_c    21.69900
_cell_angle_alpha 90.00000
_cell_angle_beta  90.00000
_cell_angle_gamma 90.00000
 
loop_
_space_group_symop_id
_space_group_symop_operation_xyz
1 x,y,z
2 x,-y,-z
3 -x,y,-z
4 -x,-y,z
5 y,z,x
6 y,-z,-x
7 -y,z,-x
8 -y,-z,x
9 z,x,y
10 z,-x,-y
11 -z,x,-y
12 -z,-x,y
13 y,x,z
14 y,-x,-z
15 -y,x,-z
16 -y,-x,z
17 x,z,y
18 x,-z,-y
19 -x,z,-y
20 -x,-z,y
21 z,y,x
22 z,-y,-x
23 -z,y,-x
24 -z,-y,x
25 x,y+1/2,z+1/2
26 x,-y+1/2,-z+1/2
27 -x,y+1/2,-z+1/2
28 -x,-y+1/2,z+1/2
29 y,z+1/2,x+1/2
30 y,-z+1/2,-x+1/2
31 -y,z+1/2,-x+1/2
32 -y,-z+1/2,x+1/2
33 z,x+1/2,y+1/2
34 z,-x+1/2,-y+1/2
35 -z,x+1/2,-y+1/2
36 -z,-x+1/2,y+1/2
37 y,x+1/2,z+1/2
38 y,-x+1/2,-z+1/2
39 -y,x+1/2,-z+1/2
40 -y,-x+1/2,z+1/2
41 x,z+1/2,y+1/2
42 x,-z+1/2,-y+1/2
43 -x,z+1/2,-y+1/2
44 -x,-z+1/2,y+1/2
45 z,y+1/2,x+1/2
46 z,-y+1/2,-x+1/2
47 -z,y+1/2,-x+1/2
48 -z,-y+1/2,x+1/2
49 x+1/2,y,z+1/2
50 x+1/2,-y,-z+1/2
51 -x+1/2,y,-z+1/2
52 -x+1/2,-y,z+1/2
53 y+1/2,z,x+1/2
54 y+1/2,-z,-x+1/2
55 -y+1/2,z,-x+1/2
56 -y+1/2,-z,x+1/2
57 z+1/2,x,y+1/2
58 z+1/2,-x,-y+1/2
59 -z+1/2,x,-y+1/2
60 -z+1/2,-x,y+1/2
61 y+1/2,x,z+1/2
62 y+1/2,-x,-z+1/2
63 -y+1/2,x,-z+1/2
64 -y+1/2,-x,z+1/2
65 x+1/2,z,y+1/2
66 x+1/2,-z,-y+1/2
67 -x+1/2,z,-y+1/2
68 -x+1/2,-z,y+1/2
69 z+1/2,y,x+1/2
70 z+1/2,-y,-x+1/2
71 -z+1/2,y,-x+1/2
72 -z+1/2,-y,x+1/2
73 x+1/2,y+1/2,z
74 x+1/2,-y+1/2,-z
75 -x+1/2,y+1/2,-z
76 -x+1/2,-y+1/2,z
77 y+1/2,z+1/2,x
78 y+1/2,-z+1/2,-x
79 -y+1/2,z+1/2,-x
80 -y+1/2,-z+1/2,x
81 z+1/2,x+1/2,y
82 z+1/2,-x+1/2,-y
83 -z+1/2,x+1/2,-y
84 -z+1/2,-x+1/2,y
85 y+1/2,x+1/2,z
86 y+1/2,-x+1/2,-z
87 -y+1/2,x+1/2,-z
88 -y+1/2,-x+1/2,z
89 x+1/2,z+1/2,y
90 x+1/2,-z+1/2,-y
91 -x+1/2,z+1/2,-y
92 -x+1/2,-z+1/2,y
93 z+1/2,y+1/2,x
94 z+1/2,-y+1/2,-x
95 -z+1/2,y+1/2,-x
96 -z+1/2,-y+1/2,x
 
loop_
_atom_site_label
_atom_site_type_symbol
_atom_site_symmetry_multiplicity
_atom_site_Wyckoff_label
_atom_site_fract_x
_atom_site_fract_y
_atom_site_fract_z
_atom_site_occupancy
Sm1 Sm 4 a 0.00000 0.00000 0.00000 1.00000
Cd1 Cd 4 b 0.50000 0.50000 0.50000 1.00000
Sm2 Sm 4 c 0.25000 0.25000 0.25000 1.00000
Cd2 Cd 4 d 0.75000 0.75000 0.75000 1.00000
Cd3 Cd 16 e 0.08340 0.08340 0.08340 1.00000
Cd4 Cd 16 e 0.91260 0.91260 0.91260 1.00000
Cd5 Cd 16 e 0.16360 0.16360 0.16360 1.00000
Cd6 Cd 16 e 0.82970 0.82970 0.82970 1.00000
Sm3 Sm 16 e 0.40590 0.40590 0.40590 1.00000
Sm4 Sm 16 e 0.66180 0.66180 0.66180 1.00000
Cd7 Cd 24 f 0.15730 0.00000 0.00000 1.00000
Cd8 Cd 24 g 0.08950 0.25000 0.25000 1.00000
Cd9 Cd 48 h 0.29580 0.29580 0.39040 1.00000
Cd10 Cd 48 h 0.43770 0.43770 0.26270 1.00000
Cd11 Cd 48 h 0.54550 0.54550 0.64030 1.00000
Cd12 Cd 48 h 0.67280 0.67280 0.51230 1.00000
Cd13 Cd 48 h 0.91610 0.91610 0.76370 1.00000
Sm5 Sm 48 h 0.17350 0.17350 0.01420 1.00000