# CIF file 
data_findsym-output
_audit_creation_method FINDSYM

_chemical_name_mineral 'Nd4O11Re2'
_chemical_formula_sum 'Nd4 O11 Re2'

loop_
_publ_author_name
 'K.-A. Wilhelmi'
 'E. Lagervall'
 'O. Muller'
_journal_name_full_name
;
 Acta Chemica Scandinavica
;
_journal_volume 24
_journal_year 1970
_journal_page_first 3406
_journal_page_last 3408
_publ_Section_title
;
 On the Crystal Structure of Nd$_{4}$Re$_{2}$O$_{11}$
;

# Found in The American Mineralogist Crystal Structure Database, 2003

_aflow_title 'Nd$_{4}$Re$_{2}$O$_{11}$ Structure'
_aflow_proto 'A4B11C2_tP68_86_2g_ab5g_g'
_aflow_params 'a,c/a,x_{3},y_{3},z_{3},x_{4},y_{4},z_{4},x_{5},y_{5},z_{5},x_{6},y_{6},z_{6},x_{7},y_{7},z_{7},x_{8},y_{8},z_{8},x_{9},y_{9},z_{9},x_{10},y_{10},z_{10}'
_aflow_params_values '12.676,0.441858630483,0.184,0.1182,0.4979,0.1107,0.8064,0.603,0.0301,0.1938,0.7009,0.0013,0.4086,0.6937,0.0415,0.6291,0.7905,0.1484,0.8032,-0.0057,0.4559,0.34,0.1868,0.0247,-0.087,0.0707'
_aflow_Strukturbericht 'None'
_aflow_Pearson 'tP68'

_symmetry_space_group_name_H-M "P 42/n (origin choice 2)"
_symmetry_Int_Tables_number 86
 
_cell_length_a    12.67600
_cell_length_b    12.67600
_cell_length_c    5.60100
_cell_angle_alpha 90.00000
_cell_angle_beta  90.00000
_cell_angle_gamma 90.00000
 
loop_
_space_group_symop_id
_space_group_symop_operation_xyz
1 x,y,z
2 -x+1/2,-y+1/2,z
3 -y,x+1/2,z+1/2
4 y+1/2,-x,z+1/2
5 -x,-y,-z
6 x+1/2,y+1/2,-z
7 y,-x+1/2,-z+1/2
8 -y+1/2,x,-z+1/2
 
loop_
_atom_site_label
_atom_site_type_symbol
_atom_site_symmetry_multiplicity
_atom_site_Wyckoff_label
_atom_site_fract_x
_atom_site_fract_y
_atom_site_fract_z
_atom_site_occupancy
O1 O 2 a 0.25000 0.25000 0.25000 1.00000
O2 O 2 b 0.25000 0.25000 0.75000 1.00000
Nd1 Nd 8 g 0.18400 0.11820 0.49790 1.00000
Nd2 Nd 8 g 0.11070 0.80640 0.60300 1.00000
O3 O 8 g 0.03010 0.19380 0.70090 1.00000
O4 O 8 g 0.00130 0.40860 0.69370 1.00000
O5 O 8 g 0.04150 0.62910 0.79050 1.00000
O6 O 8 g 0.14840 0.80320 -0.00570 1.00000
O7 O 8 g 0.45590 0.34000 0.18680 1.00000
Re1 Re 8 g 0.02470 -0.08700 0.07070 1.00000