# CIF file 
data_findsym-output
_audit_creation_method FINDSYM

_chemical_name_mineral 'F4K2Ni'
_chemical_formula_sum 'F4 K2 Ni'

loop_
_publ_author_name
 'S. N. Ruddlesden'
 'P. Popper'
_journal_name_full_name
;
 Acta Cristallographica
;
_journal_volume 10
_journal_year 1957
_journal_page_first 538
_journal_page_last 539
_publ_Section_title
;
 New compounds of the K$_{2}$NiF$_{4}$ type
;

# Found in Ruddlesden-Popper phase, {A$_{2}$BX$_{4}$ series},

_aflow_title 'K$_{2}$NiF$_{4}$ Structure'
_aflow_proto 'A4B2C_tI14_139_ce_e_a'
_aflow_params 'a,c/a,z_{3},z_{4}'
_aflow_params_values '4.0,3.2675,0.151,0.352'
_aflow_Strukturbericht 'None'
_aflow_Pearson 'tI14'

_symmetry_space_group_name_H-M "I 4/m 2/m 2/m"
_symmetry_Int_Tables_number 139
 
_cell_length_a    4.00000
_cell_length_b    4.00000
_cell_length_c    13.07000
_cell_angle_alpha 90.00000
_cell_angle_beta  90.00000
_cell_angle_gamma 90.00000
 
loop_
_space_group_symop_id
_space_group_symop_operation_xyz
1 x,y,z
2 x,-y,-z
3 -x,y,-z
4 -x,-y,z
5 -y,-x,-z
6 -y,x,z
7 y,-x,z
8 y,x,-z
9 -x,-y,-z
10 -x,y,z
11 x,-y,z
12 x,y,-z
13 y,x,z
14 y,-x,-z
15 -y,x,-z
16 -y,-x,z
17 x+1/2,y+1/2,z+1/2
18 x+1/2,-y+1/2,-z+1/2
19 -x+1/2,y+1/2,-z+1/2
20 -x+1/2,-y+1/2,z+1/2
21 -y+1/2,-x+1/2,-z+1/2
22 -y+1/2,x+1/2,z+1/2
23 y+1/2,-x+1/2,z+1/2
24 y+1/2,x+1/2,-z+1/2
25 -x+1/2,-y+1/2,-z+1/2
26 -x+1/2,y+1/2,z+1/2
27 x+1/2,-y+1/2,z+1/2
28 x+1/2,y+1/2,-z+1/2
29 y+1/2,x+1/2,z+1/2
30 y+1/2,-x+1/2,-z+1/2
31 -y+1/2,x+1/2,-z+1/2
32 -y+1/2,-x+1/2,z+1/2
 
loop_
_atom_site_label
_atom_site_type_symbol
_atom_site_symmetry_multiplicity
_atom_site_Wyckoff_label
_atom_site_fract_x
_atom_site_fract_y
_atom_site_fract_z
_atom_site_occupancy
Ni1 Ni 2 a 0.00000 0.00000 0.00000 1.00000
F1 F 4 c 0.00000 0.50000 0.00000 1.00000
F2 F 4 e 0.00000 0.00000 0.15100 1.00000
K1 K 4 e 0.00000 0.00000 0.35200 1.00000