# CIF file 
data_findsym-output
_audit_creation_method FINDSYM

_chemical_name_mineral 'Tennantite'
_chemical_formula_sum 'As4 Cu24 S13'

loop_
_publ_author_name
 'A. A. Yaroslavzev'
 'A. V. Mironov'
 'A. N. Kuznetsov'
 'A. P. Dudka'
 'O. N. Khrykina'
_journal_name_full_name
;
 Acta Crystallographica Section B: Structural Science
;
_journal_volume 75
_journal_year 2019
_journal_page_first 634
_journal_page_last 642
_publ_Section_title
;
 Tennantite: multi-temperature crystal structure, phase transition and electronic structure of synthetic Cu$_{12}$As$_{4}$S$_{13}$
;

_aflow_title 'Tennantite (Cu$_{12}$As$_{4}$S$_{13}$) Structure'
_aflow_proto 'A4B24C13_cI82_217_c_deg_ag'
_aflow_params 'a,x_{2},x_{4},x_{5},z_{5},x_{6},z_{6}'
_aflow_params_values '10.1439,0.24271,0.2173,0.0777,0.2123,0.61822,0.14266'
_aflow_Strukturbericht 'None'
_aflow_Pearson 'cI82'

_symmetry_space_group_name_H-M "I -4 3 m"
_symmetry_Int_Tables_number 217
 
_cell_length_a    10.14390
_cell_length_b    10.14390
_cell_length_c    10.14390
_cell_angle_alpha 90.00000
_cell_angle_beta  90.00000
_cell_angle_gamma 90.00000
 
loop_
_space_group_symop_id
_space_group_symop_operation_xyz
1 x,y,z
2 x,-y,-z
3 -x,y,-z
4 -x,-y,z
5 y,z,x
6 y,-z,-x
7 -y,z,-x
8 -y,-z,x
9 z,x,y
10 z,-x,-y
11 -z,x,-y
12 -z,-x,y
13 y,x,z
14 y,-x,-z
15 -y,x,-z
16 -y,-x,z
17 x,z,y
18 x,-z,-y
19 -x,z,-y
20 -x,-z,y
21 z,y,x
22 z,-y,-x
23 -z,y,-x
24 -z,-y,x
25 x+1/2,y+1/2,z+1/2
26 x+1/2,-y+1/2,-z+1/2
27 -x+1/2,y+1/2,-z+1/2
28 -x+1/2,-y+1/2,z+1/2
29 y+1/2,z+1/2,x+1/2
30 y+1/2,-z+1/2,-x+1/2
31 -y+1/2,z+1/2,-x+1/2
32 -y+1/2,-z+1/2,x+1/2
33 z+1/2,x+1/2,y+1/2
34 z+1/2,-x+1/2,-y+1/2
35 -z+1/2,x+1/2,-y+1/2
36 -z+1/2,-x+1/2,y+1/2
37 y+1/2,x+1/2,z+1/2
38 y+1/2,-x+1/2,-z+1/2
39 -y+1/2,x+1/2,-z+1/2
40 -y+1/2,-x+1/2,z+1/2
41 x+1/2,z+1/2,y+1/2
42 x+1/2,-z+1/2,-y+1/2
43 -x+1/2,z+1/2,-y+1/2
44 -x+1/2,-z+1/2,y+1/2
45 z+1/2,y+1/2,x+1/2
46 z+1/2,-y+1/2,-x+1/2
47 -z+1/2,y+1/2,-x+1/2
48 -z+1/2,-y+1/2,x+1/2
 
loop_
_atom_site_label
_atom_site_type_symbol
_atom_site_symmetry_multiplicity
_atom_site_Wyckoff_label
_atom_site_fract_x
_atom_site_fract_y
_atom_site_fract_z
_atom_site_occupancy
S1 S 2 a 0.00000 0.00000 0.00000 1.00000
As1 As 8 c 0.24271 0.24271 0.24271 1.00000
Cu1 Cu 12 d 0.25000 0.50000 0.00000 1.00000
Cu2 Cu 12 e 0.21730 0.00000 0.00000 0.75800
Cu3 Cu 24 g 0.07770 0.07770 0.21230 0.12100
S2 S 24 g 0.61822 0.61822 0.14266 1.00000