# CIF file 
data_findsym-output
_audit_creation_method FINDSYM

_chemical_name_mineral 'H4N2O3'
_chemical_formula_sum 'H4 N2 O3'

loop_
_publ_author_name
 'C. S. Choi'
 'J. E. Mapes'
 'E. Prince'
_journal_name_full_name
;
 Acta Crystallographica Section B: Structural Science
;
_journal_volume 28
_journal_year 1972
_journal_page_first 1357
_journal_page_last 1361
_publ_Section_title
;
 The structure of ammonium nitrate (IV)
;

_aflow_title 'NH$_{4}$NO$_{3}$ IV ($G0_{11}$) Structure'
_aflow_proto 'A4B2C3_oP18_59_ef_ab_af'
_aflow_params 'a,b/a,c/a,z_{1},z_{2},z_{3},y_{4},z_{4},x_{5},z_{5},x_{6},z_{6}'
_aflow_params_values '5.745,0.946562228024,0.860226283725,0.5067,0.7629,0.0836,0.8989,-0.0324,0.6045,0.8102,0.43442,0.3832'
_aflow_Strukturbericht '$G0_{11}$'
_aflow_Pearson 'oP18'

_symmetry_space_group_name_H-M "P 21/m 21/m 2/n (origin choice 2)"
_symmetry_Int_Tables_number 59
 
_cell_length_a    5.74500
_cell_length_b    5.43800
_cell_length_c    4.94200
_cell_angle_alpha 90.00000
_cell_angle_beta  90.00000
_cell_angle_gamma 90.00000
 
loop_
_space_group_symop_id
_space_group_symop_operation_xyz
1 x,y,z
2 x+1/2,-y,-z
3 -x,y+1/2,-z
4 -x+1/2,-y+1/2,z
5 -x,-y,-z
6 -x+1/2,y,z
7 x,-y+1/2,z
8 x+1/2,y+1/2,-z
 
loop_
_atom_site_label
_atom_site_type_symbol
_atom_site_symmetry_multiplicity
_atom_site_Wyckoff_label
_atom_site_fract_x
_atom_site_fract_y
_atom_site_fract_z
_atom_site_occupancy
N1 N 2 a 0.25000 0.25000 0.50670 1.00000
O1 O 2 a 0.25000 0.25000 0.76290 1.00000
N2 N 2 b 0.25000 0.75000 0.08360 1.00000
H1 H 4 e 0.25000 0.89890 -0.03240 1.00000
H2 H 4 f 0.60450 0.25000 0.81020 1.00000
O2 O 4 f 0.43442 0.25000 0.38320 1.00000