# CIF file 
data_findsym-output
_audit_creation_method FINDSYM

_chemical_name_mineral 'B4O7Sr'
_chemical_formula_sum 'B4 O7 Sr'

loop_
_publ_author_name
 'J. {Krogh-Moe}'
_journal_name_full_name
;
 Acta Chemica Scandinavica
;
_journal_volume 18
_journal_year 1964
_journal_page_first 2055
_journal_page_last 2060
_publ_Section_title
;
 The Crystal Structure of Strontium Diborate, SrO$\cdot$2B$_{2}$O$_{3}$
;

_aflow_title 'B$_{4}$SrO$_{7}$ Structure'
_aflow_proto 'A4B7C_oP24_31_2b_a3b_a'
_aflow_params 'a,b/a,c/a,y_{1},z_{1},y_{2},z_{2},x_{3},y_{3},z_{3},x_{4},y_{4},z_{4},x_{5},y_{5},z_{5},x_{6},y_{6},z_{6},x_{7},y_{7},z_{7}'
_aflow_params_values '10.711,0.413313416114,0.395387918962,0.728,0.454,0.289,0.0,0.379,0.174,-0.024,0.246,0.671,-0.037,0.359,0.857,0.064,0.221,0.631,0.335,0.365,0.226,0.335'
_aflow_Strukturbericht 'None'
_aflow_Pearson 'oP24'

_symmetry_space_group_name_H-M "P m n 21"
_symmetry_Int_Tables_number 31
 
_cell_length_a    10.71100
_cell_length_b    4.42700
_cell_length_c    4.23500
_cell_angle_alpha 90.00000
_cell_angle_beta  90.00000
_cell_angle_gamma 90.00000
 
loop_
_space_group_symop_id
_space_group_symop_operation_xyz
1 x,y,z
2 -x+1/2,-y,z+1/2
3 -x,y,z
4 x+1/2,-y,z+1/2
 
loop_
_atom_site_label
_atom_site_type_symbol
_atom_site_symmetry_multiplicity
_atom_site_Wyckoff_label
_atom_site_fract_x
_atom_site_fract_y
_atom_site_fract_z
_atom_site_occupancy
O1 O 2 a 0.00000 0.72800 0.45400 1.00000
Sr1 Sr 2 a 0.00000 0.28900 0.00000 1.00000
B1 B 4 b 0.37900 0.17400 -0.02400 1.00000
B2 B 4 b 0.24600 0.67100 -0.03700 1.00000
O2 O 4 b 0.35900 0.85700 0.06400 1.00000
O3 O 4 b 0.22100 0.63100 0.33500 1.00000
O4 O 4 b 0.36500 0.22600 0.33500 1.00000