# CIF file 
data_findsym-output
_audit_creation_method FINDSYM

_chemical_name_mineral 'KH2PO4'
_chemical_formula_sum 'H4 K O4 P'

loop_
_publ_author_name
 'R. J. Nelmes'
 'G. M. Meyer'
 'J. E. Tibballs'
_journal_name_full_name
;
 Journal of Physics C: Solid State Physics
;
_journal_volume 15
_journal_year 1982
_journal_page_first 59
_journal_page_last 75
_publ_Section_title
;
 The crystal structure of tetragonal KH$_{2}$PO$_{4}$ and KD$_{2}$PO$_{4}$ as a function of temperature
;

_aflow_title 'KH$_{2}$PO$_{4}$ ($H2_{2}$) Structure'
_aflow_proto 'A4BC4D_tI40_122_e_b_e_a'
_aflow_params 'a,c/a,x_{3},y_{3},z_{3},x_{4},y_{4},z_{4}'
_aflow_params_values '7.4264,0.933292039211,0.14867,0.22713,0.12266,0.1933,0.08283,0.12675'
_aflow_Strukturbericht '$H2_{2}$'
_aflow_Pearson 'tI40'

_symmetry_space_group_name_H-M "I -4 2 d"
_symmetry_Int_Tables_number 122
 
_cell_length_a    7.42640
_cell_length_b    7.42640
_cell_length_c    6.93100
_cell_angle_alpha 90.00000
_cell_angle_beta  90.00000
_cell_angle_gamma 90.00000
 
loop_
_space_group_symop_id
_space_group_symop_operation_xyz
1 x,y,z
2 x,-y+1/2,-z+1/4
3 -x,y+1/2,-z+1/4
4 -x,-y,z
5 y,x+1/2,z+1/4
6 y,-x,-z
7 -y,x,-z
8 -y,-x+1/2,z+1/4
9 x+1/2,y+1/2,z+1/2
10 x+1/2,-y,-z+3/4
11 -x+1/2,y,-z+3/4
12 -x+1/2,-y+1/2,z+1/2
13 y+1/2,x,z+3/4
14 y+1/2,-x+1/2,-z+1/2
15 -y+1/2,x+1/2,-z+1/2
16 -y+1/2,-x,z+3/4
 
loop_
_atom_site_label
_atom_site_type_symbol
_atom_site_symmetry_multiplicity
_atom_site_Wyckoff_label
_atom_site_fract_x
_atom_site_fract_y
_atom_site_fract_z
_atom_site_occupancy
P1 P 4 a 0.00000 0.00000 0.00000 1.00000
K1 K 4 b 0.00000 0.00000 0.50000 1.00000
H1 H 16 e 0.14867 0.22713 0.12266 0.50000
O1 O 16 e 0.19330 0.08283 0.12675 1.00000