# CIF file 
data_findsym-output
_audit_creation_method FINDSYM

_chemical_name_mineral 'Staurolite'
_chemical_formula_sum 'Al4 Fe O12 Si2'

loop_
_publ_author_name
 'C. Hermann'
 'O. Lohrmann'
 'H. Philipp'
_journal_year 1937
_publ_Section_title
;
 Strukturbericht Band II 1928-1932
;

_aflow_title '$S0_{4}$ (Staurolite, Fe(OH)$_{2}$Al$_{4}$Si$_{2}$O$_{10}$) ({\em{obsolete}}) Structure'
_aflow_proto 'A4BC12D2_oC76_63_eg_c_f3gh_g'
_aflow_params 'a,b/a,c/a,y_{1},x_{2},y_{3},z_{3},x_{4},y_{4},x_{5},y_{5},x_{6},y_{6},x_{7},y_{7},x_{8},y_{8},x_{9},y_{9},z_{9}'
_aflow_params_values '16.52,0.473365617433,0.340799031477,0.611,0.328,0.778,0.0,-0.092,0.25,0.094,0.0,0.25,0.0,0.406,0.0,0.667,0.375,0.658,0.173,0.0'
_aflow_Strukturbericht '$S0_{4}$'
_aflow_Pearson 'oC76'

_symmetry_space_group_name_H-M "C 2/m 2/c 21/m"
_symmetry_Int_Tables_number 63
 
_cell_length_a    16.52000
_cell_length_b    7.82000
_cell_length_c    5.63000
_cell_angle_alpha 90.00000
_cell_angle_beta  90.00000
_cell_angle_gamma 90.00000
 
loop_
_space_group_symop_id
_space_group_symop_operation_xyz
1 x,y,z
2 x,-y,-z
3 -x,y,-z+1/2
4 -x,-y,z+1/2
5 -x,-y,-z
6 -x,y,z
7 x,-y,z+1/2
8 x,y,-z+1/2
9 x+1/2,y+1/2,z
10 x+1/2,-y+1/2,-z
11 -x+1/2,y+1/2,-z+1/2
12 -x+1/2,-y+1/2,z+1/2
13 -x+1/2,-y+1/2,-z
14 -x+1/2,y+1/2,z
15 x+1/2,-y+1/2,z+1/2
16 x+1/2,y+1/2,-z+1/2
 
loop_
_atom_site_label
_atom_site_type_symbol
_atom_site_symmetry_multiplicity
_atom_site_Wyckoff_label
_atom_site_fract_x
_atom_site_fract_y
_atom_site_fract_z
_atom_site_occupancy
Fe1 Fe 4 c 0.00000 0.61100 0.25000 1.00000
Al1 Al 8 e 0.32800 0.00000 0.00000 1.00000
O1 O 8 f 0.00000 0.77800 0.00000 1.00000
Al2 Al 8 g -0.09200 0.25000 0.25000 1.00000
O2 O 8 g 0.09400 0.00000 0.25000 1.00000
O3 O 8 g 0.25000 0.00000 0.25000 1.00000
O4 O 8 g 0.40600 0.00000 0.25000 1.00000
Si1 Si 8 g 0.66700 0.37500 0.25000 1.00000
O5 O 16 h 0.65800 0.17300 0.00000 1.00000
