# CIF file 
data_findsym-output
_audit_creation_method FINDSYM

_chemical_name_mineral 'O4SrU'
_chemical_formula_sum 'O4 Sr U'

loop_
_publ_author_name
 'B. O. Loopstra'
 'H. M. Rietveld'
_journal_name_full_name
;
 Acta Crystallographica Section B: Structural Science
;
_journal_volume 25
_journal_year 1969
_journal_page_first 787
_journal_page_last 791
_publ_Section_title
;
 The structure of some alkaline-earth metal uranates
;

_aflow_title 'SrUO$_{4}$ Structure'
_aflow_proto 'A4BC_oP24_57_cde_d_a'
_aflow_params 'a,b/a,c/a,x_{2},x_{3},y_{3},x_{4},y_{4},x_{5},y_{5},z_{5}'
_aflow_params_values '5.4896,1.4531113378,1.48092757214,0.1726,0.8602,0.03,0.471,0.2013,0.2998,-0.0807,0.081'
_aflow_Strukturbericht 'None'
_aflow_Pearson 'oP24'

_symmetry_space_group_name_H-M "P 2/b 21/c 21/m"
_symmetry_Int_Tables_number 57
 
_cell_length_a    5.48960
_cell_length_b    7.97700
_cell_length_c    8.12970
_cell_angle_alpha 90.00000
_cell_angle_beta  90.00000
_cell_angle_gamma 90.00000
 
loop_
_space_group_symop_id
_space_group_symop_operation_xyz
1 x,y,z
2 x,-y+1/2,-z
3 -x,y+1/2,-z+1/2
4 -x,-y,z+1/2
5 -x,-y,-z
6 -x,y+1/2,z
7 x,-y+1/2,z+1/2
8 x,y,-z+1/2
 
loop_
_atom_site_label
_atom_site_type_symbol
_atom_site_symmetry_multiplicity
_atom_site_Wyckoff_label
_atom_site_fract_x
_atom_site_fract_y
_atom_site_fract_z
_atom_site_occupancy
U1 U 4 a 0.00000 0.00000 0.00000 1.00000
O1 O 4 c 0.17260 0.25000 0.00000 1.00000
O2 O 4 d 0.86020 0.03000 0.25000 1.00000
Sr1 Sr 4 d 0.47100 0.20130 0.25000 1.00000
O3 O 8 e 0.29980 -0.08070 0.08100 1.00000