# CIF file 
data_findsym-output
_audit_creation_method FINDSYM

_chemical_name_mineral 'B4CsFO6'
_chemical_formula_sum 'B4 Cs F O6'

loop_
_publ_author_name
 'X. Wang'
 'Y. Wang'
 'B. Zhang'
 'F. Zhang'
 'Z. Yang'
 'S. Pan'
_journal_name_full_name
;
 Angewandte Chemie
;
_journal_volume 129
_journal_year 2017
_journal_page_first 14307
_journal_page_last 14311
_publ_Section_title
;
 CsB$_{4}$O$_{6}$F: A Congruent-Melting Deep-Ultraviolet Nonlinear Optical Material by Combining Superior Functional Units
;

_aflow_title 'CsB$_{4}$O$_{6}$F Structure'
_aflow_proto 'A4BCD6_oP48_33_4a_a_a_6a'
_aflow_params 'a,b/a,c/a,x_{1},y_{1},z_{1},x_{2},y_{2},z_{2},x_{3},y_{3},z_{3},x_{4},y_{4},z_{4},x_{5},y_{5},z_{5},x_{6},y_{6},z_{6},x_{7},y_{7},z_{7},x_{8},y_{8},z_{8},x_{9},y_{9},z_{9},x_{10},y_{10},z_{10},x_{11},y_{11},z_{11},x_{12},y_{12},z_{12}'
_aflow_params_values '7.9241,1.43859870522,0.840953546775,0.2971,0.5446,0.6555,0.2977,0.5006,0.0044,0.2304,0.2003,0.3942,0.2327,0.4189,0.348,0.49584,0.22117,0.852,0.0566,0.4371,0.3269,0.306,0.4658,0.8049,0.2888,0.6655,0.701,0.3,0.5194,0.4588,0.2626,0.3109,0.4526,0.3038,0.4165,0.1445,0.2784,0.6167,0.0497'
_aflow_Strukturbericht 'None'
_aflow_Pearson 'oP48'

_symmetry_space_group_name_H-M "P n a 21"
_symmetry_Int_Tables_number 33
 
_cell_length_a    7.92410
_cell_length_b    11.39960
_cell_length_c    6.66380
_cell_angle_alpha 90.00000
_cell_angle_beta  90.00000
_cell_angle_gamma 90.00000
 
loop_
_space_group_symop_id
_space_group_symop_operation_xyz
1 x,y,z
2 -x,-y,z+1/2
3 -x+1/2,y+1/2,z+1/2
4 x+1/2,-y+1/2,z
 
loop_
_atom_site_label
_atom_site_type_symbol
_atom_site_symmetry_multiplicity
_atom_site_Wyckoff_label
_atom_site_fract_x
_atom_site_fract_y
_atom_site_fract_z
_atom_site_occupancy
B1 B 4 a 0.29710 0.54460 0.65550 1.00000
B2 B 4 a 0.29770 0.50060 0.00440 1.00000
B3 B 4 a 0.23040 0.20030 0.39420 1.00000
B4 B 4 a 0.23270 0.41890 0.34800 1.00000
Cs1 Cs 4 a 0.49584 0.22117 0.85200 1.00000
F1 F 4 a 0.05660 0.43710 0.32690 1.00000
O1 O 4 a 0.30600 0.46580 0.80490 1.00000
O2 O 4 a 0.28880 0.66550 0.70100 1.00000
O3 O 4 a 0.30000 0.51940 0.45880 1.00000
O4 O 4 a 0.26260 0.31090 0.45260 1.00000
O5 O 4 a 0.30380 0.41650 0.14450 1.00000
O6 O 4 a 0.27840 0.61670 0.04970 1.00000