# CIF file 
data_findsym-output
_audit_creation_method FINDSYM

_chemical_name_mineral 'Cl4(H2O)HgK2'
_chemical_formula_sum 'Cl4 (H2O) Hg K2'

loop_
_publ_author_name
 'K. Aurivillius'
 'C. St{\aa}lhandske'
_journal_name_full_name
;
 Acta Chemica Scandinavica
;
_journal_volume 27
_journal_year 1973
_journal_page_first 1086
_journal_page_last 1088
_publ_Section_title
;
 An X-Ray Single Crystal Study of K$_{2}$HgCl$_{4}$$\cdot$H$_{2}$O
;

_aflow_title 'K$_{2}$HgCl$_{4}$$\cdot$H$_{2}$O ($E3_{4}$) Structure'
_aflow_proto 'A4BCD2_oP32_55_ghi_f_e_gh'
_aflow_params 'a,b/a,c/a,z_{1},z_{2},x_{3},y_{3},x_{4},y_{4},x_{5},y_{5},x_{6},y_{6},x_{7},y_{7},z_{7}'
_aflow_params_values '8.258,1.41220634536,1.08077016227,0.22925,0.2312,0.2042,0.0763,0.0819,0.341,0.2489,0.0601,0.1047,0.3047,0.8831,0.186,0.252'
_aflow_Strukturbericht '$E3_{4}$'
_aflow_Pearson 'oP32'

_symmetry_space_group_name_H-M "P 21/b 21/a 2/m"
_symmetry_Int_Tables_number 55
 
_cell_length_a    8.25800
_cell_length_b    11.66200
_cell_length_c    8.92500
_cell_angle_alpha 90.00000
_cell_angle_beta  90.00000
_cell_angle_gamma 90.00000
 
loop_
_space_group_symop_id
_space_group_symop_operation_xyz
1 x,y,z
2 x+1/2,-y+1/2,-z
3 -x+1/2,y+1/2,-z
4 -x,-y,z
5 -x,-y,-z
6 -x+1/2,y+1/2,z
7 x+1/2,-y+1/2,z
8 x,y,-z
 
loop_
_atom_site_label
_atom_site_type_symbol
_atom_site_symmetry_multiplicity
_atom_site_Wyckoff_label
_atom_site_fract_x
_atom_site_fract_y
_atom_site_fract_z
_atom_site_occupancy
Hg1 Hg 4 e 0.00000 0.00000 0.22925 1.00000
H2O1 H2O 4 f 0.00000 0.50000 0.23120 1.00000
Cl1 Cl 4 g 0.20420 0.07630 0.00000 1.00000
K1 K 4 g 0.08190 0.34100 0.00000 1.00000
Cl2 Cl 4 h 0.24890 0.06010 0.50000 1.00000
K2 K 4 h 0.10470 0.30470 0.50000 1.00000
Cl3 Cl 8 i 0.88310 0.18600 0.25200 1.00000