# CIF file 
data_findsym-output
_audit_creation_method FINDSYM

_chemical_name_mineral 'Swedenborgite'
_chemical_formula_sum 'Be4 Na O7 Sb'

loop_
_publ_author_name
 'D. M. C. Huminicki'
 'F. C. Hawthorne'
_journal_name_full_name
;
 Canadian Mineralogist
;
_journal_volume 39
_journal_year 2001
_journal_page_first 153
_journal_page_last 158
_publ_Section_title
;
 Refinement of the Crystal Structure of Swedenborgite
;

_aflow_title 'Swedenborgite (NaBe$_{4}$SbO$_{7}$, $E9_{2}$) Structure'
_aflow_proto 'A4BC7D_hP26_186_ac_b_a2c_b'
_aflow_params 'a,c/a,z_{1},z_{2},z_{3},z_{4},x_{5},z_{5},x_{6},z_{6},x_{7},z_{7}'
_aflow_params_values '5.4317,1.63063129407,0.0629,0.3728,0.6245,0.0,0.1664,0.3126,0.4961,0.3706,0.1616,0.1269'
_aflow_Strukturbericht '$E9_{2}$'
_aflow_Pearson 'hP26'

_symmetry_space_group_name_H-M "P 63 m c"
_symmetry_Int_Tables_number 186
 
_cell_length_a    5.43170
_cell_length_b    5.43170
_cell_length_c    8.85710
_cell_angle_alpha 90.00000
_cell_angle_beta  90.00000
_cell_angle_gamma 120.00000
 
loop_
_space_group_symop_id
_space_group_symop_operation_xyz
1 x,y,z
2 x-y,x,z+1/2
3 -y,x-y,z
4 -x,-y,z+1/2
5 -x+y,-x,z
6 y,-x+y,z+1/2
7 -x+y,y,z
8 -x,-x+y,z+1/2
9 -y,-x,z
10 x-y,-y,z+1/2
11 x,x-y,z
12 y,x,z+1/2
 
loop_
_atom_site_label
_atom_site_type_symbol
_atom_site_symmetry_multiplicity
_atom_site_Wyckoff_label
_atom_site_fract_x
_atom_site_fract_y
_atom_site_fract_z
_atom_site_occupancy
Be1 Be 2 a 0.00000 0.00000 0.06290 1.00000
O1 O 2 a 0.00000 0.00000 0.37280 1.00000
Na1 Na 2 b 0.33333 0.66667 0.62450 1.00000
Sb1 Sb 2 b 0.33333 0.66667 0.00000 1.00000
Be2 Be 6 c 0.16640 0.83360 0.31260 1.00000
O2 O 6 c 0.49610 0.50390 0.37060 1.00000
O3 O 6 c 0.16160 0.83840 0.12690 1.00000