# CIF file 
data_findsym-output
_audit_creation_method FINDSYM

_chemical_name_mineral 'Staurolite'
_chemical_formula_sum 'Al5 Fe2 O10 (OH)2 Si2'

loop_
_publ_author_name
 'J. V. Smith'
_journal_name_full_name
;
 American Mineralogist
;
_journal_volume 53
_journal_year 1968
_journal_page_first 1139
_journal_page_last 1155
_publ_Section_title
;
 The crystal structure of staurolite
;

_aflow_title 'Staurolite (Al$_{5}$Fe$_{2}$O$_{10}$(OH)$_{2}$Si$_{2}$) Structure'
_aflow_proto 'A5B2C10D2E2_mC84_12_acghj_bdi_5j_2i_j'
_aflow_params 'a,b/a,c/a,\beta,y_{5},y_{6},x_{7},z_{7},x_{8},z_{8},x_{9},z_{9},x_{10},y_{10},z_{10},x_{11},y_{11},z_{11},x_{12},y_{12},z_{12},x_{13},y_{13},z_{13},x_{14},y_{14},z_{14},x_{15},y_{15},z_{15},x_{16},y_{16},z_{16}'
_aflow_params_values '7.8713,2.11151906292,0.718559831286,90.0,0.67511,0.67477,0.39281,0.24815,0.23274,-0.03687,0.23438,0.53428,0.26356,0.41042,0.25122,0.25569,0.16153,0.01527,0.25519,0.16127,0.48391,0.00143,0.08917,0.24702,0.02156,0.24925,0.25002,0.52741,0.10004,0.24944,0.13414,0.16612,0.24902'
_aflow_Strukturbericht 'None'
_aflow_Pearson 'mC84'

_symmetry_space_group_name_H-M "C 1 2/m 1"
_symmetry_Int_Tables_number 12
 
_cell_length_a    7.87130
_cell_length_b    16.62040
_cell_length_c    5.65600
_cell_angle_alpha 90.00000
_cell_angle_beta  90.00000
_cell_angle_gamma 90.00000
 
loop_
_space_group_symop_id
_space_group_symop_operation_xyz
1 x,y,z
2 -x,y,-z
3 -x,-y,-z
4 x,-y,z
5 x+1/2,y+1/2,z
6 -x+1/2,y+1/2,-z
7 -x+1/2,-y+1/2,-z
8 x+1/2,-y+1/2,z
 
loop_
_atom_site_label
_atom_site_type_symbol
_atom_site_symmetry_multiplicity
_atom_site_Wyckoff_label
_atom_site_fract_x
_atom_site_fract_y
_atom_site_fract_z
_atom_site_occupancy
Al1 Al 2 a 0.00000 0.00000 0.00000 1.00000
Fe1 Fe 2 b 0.00000 0.50000 0.00000 1.00000
Al2 Al 2 c 0.00000 0.00000 0.50000 1.00000
Fe2 Fe 2 d 0.00000 0.50000 0.50000 1.00000
Al3 Al 4 g 0.00000 0.67511 0.00000 1.00000
Al4 Al 4 h 0.00000 0.67477 0.50000 1.00000
Fe3 Fe 4 i 0.39281 0.00000 0.24815 1.00000
OH1 OH 4 i 0.23274 0.00000 -0.03687 1.00000
OH2 OH 4 i 0.23438 0.00000 0.53428 1.00000
Al5 Al 8 j 0.26356 0.41042 0.25122 1.00000
O1 O 8 j 0.25569 0.16153 0.01527 1.00000
O2 O 8 j 0.25519 0.16127 0.48391 1.00000
O3 O 8 j 0.00143 0.08917 0.24702 1.00000
O4 O 8 j 0.02156 0.24925 0.25002 1.00000
O5 O 8 j 0.52741 0.10004 0.24944 1.00000
Si1 Si 8 j 0.13414 0.16612 0.24902 1.00000