# CIF file 
data_findsym-output
_audit_creation_method FINDSYM

_chemical_name_mineral '12-phosphotungstic acid'
_chemical_formula_sum '(H2O)5 O40 P W12'

loop_
_publ_author_name
 'J. F. Keggin'
_journal_name_full_name
;
 Proceedings of the Royal Society London A
;
_journal_volume 144
_journal_year 1934
_journal_page_first 75
_journal_page_last 100
_publ_Section_title
;
 The structure and formula of 12-phosphotungstic acid
;

# Found in Dodecatungstophosphoric acid hexahydrate, (H$_{5}$O$_{2}^{+}$)$_{3}$(PW$_{12}$O$_{40}^{3-}$). The true structure of Keggin's 'pentahydrate' from single-crystal X-ray and neutron diffraction data, 1977

_aflow_title '12-phosphotungstic acid [H$_{3}$PW$_{12}$O$_{40}$$\cdot$5H$_{2}$O ($H4_{16}$)] Structure'
_aflow_proto 'A5B40CD12_cP116_224_cd_e3k_a_k'
_aflow_params 'a,x_{4},x_{5},z_{5},x_{6},z_{6},x_{7},z_{7},x_{8},z_{8}'
_aflow_params_values '12.141,0.83154,0.67011,0.51608,0.87272,0.04157,0.43783,0.74176,-0.0445,0.75577'
_aflow_Strukturbericht '$H4_{16}$'
_aflow_Pearson 'cP116'

_symmetry_space_group_name_H-M "P 42/n -3 2/m (origin choice 2)"
_symmetry_Int_Tables_number 224
 
_cell_length_a    12.14100
_cell_length_b    12.14100
_cell_length_c    12.14100
_cell_angle_alpha 90.00000
_cell_angle_beta  90.00000
_cell_angle_gamma 90.00000
 
loop_
_space_group_symop_id
_space_group_symop_operation_xyz
1 x,y,z
2 x,-y+1/2,-z+1/2
3 -x+1/2,y,-z+1/2
4 -x+1/2,-y+1/2,z
5 y,z,x
6 y,-z+1/2,-x+1/2
7 -y+1/2,z,-x+1/2
8 -y+1/2,-z+1/2,x
9 z,x,y
10 z,-x+1/2,-y+1/2
11 -z+1/2,x,-y+1/2
12 -z+1/2,-x+1/2,y
13 -y,-x,-z
14 -y,x+1/2,z+1/2
15 y+1/2,-x,z+1/2
16 y+1/2,x+1/2,-z
17 -x,-z,-y
18 -x,z+1/2,y+1/2
19 x+1/2,-z,y+1/2
20 x+1/2,z+1/2,-y
21 -z,-y,-x
22 -z,y+1/2,x+1/2
23 z+1/2,-y,x+1/2
24 z+1/2,y+1/2,-x
25 -x,-y,-z
26 -x,y+1/2,z+1/2
27 x+1/2,-y,z+1/2
28 x+1/2,y+1/2,-z
29 -y,-z,-x
30 -y,z+1/2,x+1/2
31 y+1/2,-z,x+1/2
32 y+1/2,z+1/2,-x
33 -z,-x,-y
34 -z,x+1/2,y+1/2
35 z+1/2,-x,y+1/2
36 z+1/2,x+1/2,-y
37 y,x,z
38 y,-x+1/2,-z+1/2
39 -y+1/2,x,-z+1/2
40 -y+1/2,-x+1/2,z
41 x,z,y
42 x,-z+1/2,-y+1/2
43 -x+1/2,z,-y+1/2
44 -x+1/2,-z+1/2,y
45 z,y,x
46 z,-y+1/2,-x+1/2
47 -z+1/2,y,-x+1/2
48 -z+1/2,-y+1/2,x
 
loop_
_atom_site_label
_atom_site_type_symbol
_atom_site_symmetry_multiplicity
_atom_site_Wyckoff_label
_atom_site_fract_x
_atom_site_fract_y
_atom_site_fract_z
_atom_site_occupancy
P1 P 2 a 0.25000 0.25000 0.25000 1.00000
H2O1 H2O 4 c 0.50000 0.50000 0.50000 1.00000
H2O2 H2O 6 d 0.25000 0.75000 0.75000 1.00000
O1 O 8 e 0.83154 0.83154 0.83154 1.00000
O2 O 24 k 0.67011 0.67011 0.51608 1.00000
O3 O 24 k 0.87272 0.87272 0.04157 1.00000
O4 O 24 k 0.43783 0.43783 0.74176 1.00000
W1 W 24 k -0.04450 -0.04450 0.75577 1.00000