# CIF file 
data_findsym-output
_audit_creation_method FINDSYM

_chemical_name_mineral 'Te5Zr'
_chemical_formula_sum 'Te5 Zr'

loop_
_publ_author_name
 'H. Fjellv{\aa}g'
 'A. Kjekshus'
_journal_name_full_name
;
 Solid State Communications
;
_journal_volume 60
_journal_year 1986
_journal_page_first 91
_journal_page_last 93
_publ_Section_title
;
 Structural Properties of ZrTe$_{5}$ and HfTe$_{5}$ as Seen by Power Diffraction
;

_aflow_title 'ZrTe$_{5}$ Structure'
_aflow_proto 'A5B_oC24_63_c2f_c'
_aflow_params 'a,b/a,c/a,y_{1},y_{2},y_{3},z_{3},y_{4},z_{4}'
_aflow_params_values '3.9875,3.64388714734,3.4407523511,0.316,0.633,-0.067,0.151,0.209,0.434'
_aflow_Strukturbericht 'None'
_aflow_Pearson 'oC24'

_symmetry_space_group_name_H-M "C 2/m 2/c 21/m"
_symmetry_Int_Tables_number 63
 
_cell_length_a    3.98750
_cell_length_b    14.53000
_cell_length_c    13.72000
_cell_angle_alpha 90.00000
_cell_angle_beta  90.00000
_cell_angle_gamma 90.00000
 
loop_
_space_group_symop_id
_space_group_symop_operation_xyz
1 x,y,z
2 x,-y,-z
3 -x,y,-z+1/2
4 -x,-y,z+1/2
5 -x,-y,-z
6 -x,y,z
7 x,-y,z+1/2
8 x,y,-z+1/2
9 x+1/2,y+1/2,z
10 x+1/2,-y+1/2,-z
11 -x+1/2,y+1/2,-z+1/2
12 -x+1/2,-y+1/2,z+1/2
13 -x+1/2,-y+1/2,-z
14 -x+1/2,y+1/2,z
15 x+1/2,-y+1/2,z+1/2
16 x+1/2,y+1/2,-z+1/2
 
loop_
_atom_site_label
_atom_site_type_symbol
_atom_site_symmetry_multiplicity
_atom_site_Wyckoff_label
_atom_site_fract_x
_atom_site_fract_y
_atom_site_fract_z
_atom_site_occupancy
Te1 Te 4 c 0.00000 0.31600 0.25000 1.00000
Zr1 Zr 4 c 0.00000 0.63300 0.25000 1.00000
Te2 Te 8 f 0.00000 -0.06700 0.15100 1.00000
Te3 Te 8 f 0.00000 0.20900 0.43400 1.00000