# CIF file 
data_findsym-output
_audit_creation_method FINDSYM

_chemical_name_mineral 'Cl5CoCs3'
_chemical_formula_sum 'Cl5 Co Cs3'

loop_
_publ_author_name
 'B. N. Figgis'
 'R. Mason'
 'A. R. P. Smith'
 'G. A. Williams'
_journal_name_full_name
;
 Acta Crystallographica Section B: Structural Science
;
_journal_volume 36
_journal_year 1980
_journal_page_first 509
_journal_page_last 512
_publ_Section_title
;
 Neutron Diffraction Structure of Cs$_{3}$CoCl$_{5}$ at 4.2~K
;

_aflow_title 'Cs$_{3}$CoCl$_{5}$ ($K3_{1}$) Structure'
_aflow_proto 'A5BC3_tI36_140_cl_b_ah'
_aflow_params 'a,c/a,x_{4},x_{5},z_{5}'
_aflow_params_values '9.063,1.59439479201,0.66225,0.1421,0.15711'
_aflow_Strukturbericht '$K3_{1}$'
_aflow_Pearson 'tI36'

_symmetry_space_group_name_H-M "I 4/m 2/c 2/m"
_symmetry_Int_Tables_number 140
 
_cell_length_a    9.06300
_cell_length_b    9.06300
_cell_length_c    14.45000
_cell_angle_alpha 90.00000
_cell_angle_beta  90.00000
_cell_angle_gamma 90.00000
 
loop_
_space_group_symop_id
_space_group_symop_operation_xyz
1 x,y,z
2 x,-y,-z+1/2
3 -x,y,-z+1/2
4 -x,-y,z
5 -y,-x,-z+1/2
6 -y,x,z
7 y,-x,z
8 y,x,-z+1/2
9 -x,-y,-z
10 -x,y,z+1/2
11 x,-y,z+1/2
12 x,y,-z
13 y,x,z+1/2
14 y,-x,-z
15 -y,x,-z
16 -y,-x,z+1/2
17 x+1/2,y+1/2,z+1/2
18 x+1/2,-y+1/2,-z
19 -x+1/2,y+1/2,-z
20 -x+1/2,-y+1/2,z+1/2
21 -y+1/2,-x+1/2,-z
22 -y+1/2,x+1/2,z+1/2
23 y+1/2,-x+1/2,z+1/2
24 y+1/2,x+1/2,-z
25 -x+1/2,-y+1/2,-z+1/2
26 -x+1/2,y+1/2,z
27 x+1/2,-y+1/2,z
28 x+1/2,y+1/2,-z+1/2
29 y+1/2,x+1/2,z
30 y+1/2,-x+1/2,-z+1/2
31 -y+1/2,x+1/2,-z+1/2
32 -y+1/2,-x+1/2,z
 
loop_
_atom_site_label
_atom_site_type_symbol
_atom_site_symmetry_multiplicity
_atom_site_Wyckoff_label
_atom_site_fract_x
_atom_site_fract_y
_atom_site_fract_z
_atom_site_occupancy
Cs1 Cs 4 a 0.00000 0.00000 0.25000 1.00000
Co1 Co 4 b 0.00000 0.50000 0.25000 1.00000
Cl1 Cl 4 c 0.00000 0.00000 0.00000 1.00000
Cs2 Cs 8 h 0.66225 0.16225 0.00000 1.00000
Cl2 Cl 16 l 0.14210 0.64210 0.15711 1.00000