# CIF file 
data_findsym-output
_audit_creation_method FINDSYM

_chemical_name_mineral 'Bararite'
_chemical_formula_sum 'F6 (NH4)2 Si'

loop_
_publ_author_name
 'E. O. Schlemper'
 'W. C. Hamilton'
_journal_name_full_name
;
 Journal of Chemical Physics
;
_journal_volume 45
_journal_year 1966
_journal_page_first 408
_journal_page_last 409
_publ_Section_title
;
 On the Structure of Trigonal Ammonium Flourosilicate
;

# Found in A new modification of diammonium hexafluorosilicate, (NH$_{4}$)$_{2}$SiF$_{6}$, 2001

_aflow_title 'Bararite (Trigonal (NH$_{4}$)$_{2}$SiF$_{6}$, $J1_{6}$) Structure'
_aflow_proto 'A6B2C_hP9_164_i_d_a'
_aflow_params 'a,c/a,z_{2},x_{3},z_{3}'
_aflow_params_values '5.784,0.82918395574,0.33,0.139,0.22'
_aflow_Strukturbericht '$J1_{6}$'
_aflow_Pearson 'hP9'

_symmetry_space_group_name_H-M "P -3 2/m 1"
_symmetry_Int_Tables_number 164
 
_cell_length_a    5.78400
_cell_length_b    5.78400
_cell_length_c    4.79600
_cell_angle_alpha 90.00000
_cell_angle_beta  90.00000
_cell_angle_gamma 120.00000
 
loop_
_space_group_symop_id
_space_group_symop_operation_xyz
1 x,y,z
2 -y,x-y,z
3 -x+y,-x,z
4 x-y,-y,-z
5 y,x,-z
6 -x,-x+y,-z
7 -x,-y,-z
8 y,-x+y,-z
9 x-y,x,-z
10 -x+y,y,z
11 -y,-x,z
12 x,x-y,z
 
loop_
_atom_site_label
_atom_site_type_symbol
_atom_site_symmetry_multiplicity
_atom_site_Wyckoff_label
_atom_site_fract_x
_atom_site_fract_y
_atom_site_fract_z
_atom_site_occupancy
Si1 Si 1 a 0.00000 0.00000 0.00000 1.00000
NH41 NH4 2 d 0.33333 0.66667 0.33000 1.00000
F1 F 6 i 0.13900 0.86100 0.22000 1.00000