# CIF file 
data_findsym-output
_audit_creation_method FINDSYM

_chemical_name_mineral 'Rosiaite'
_chemical_formula_sum 'O6 Pb Sb2'

loop_
_publ_author_name
 'R. Basso'
 'G. Lucchetti'
 'L. Zefiro'
 'A. Palenzona'
_journal_name_full_name
;
 European Journal of Mineralogy
;
_journal_volume 8
_journal_year 1996
_journal_page_first 487
_journal_page_last 492
_publ_Section_title
;
 Rosiaite, PbSb$_{2}$O$_{6}$, a new mineral from the Cetine mine, Siena, Italy
;

_aflow_title 'Rosiaite (PbSb$_{2}$O$_{6}$) Structure'
_aflow_proto 'A6BC2_hP9_162_k_a_d'
_aflow_params 'a,c/a,x_{3},z_{3}'
_aflow_params_values '5.295,1.01454202077,0.377,0.2965'
_aflow_Strukturbericht 'None'
_aflow_Pearson 'hP9'

_symmetry_space_group_name_H-M "P -3 1 2/m"
_symmetry_Int_Tables_number 162
 
_cell_length_a    5.29500
_cell_length_b    5.29500
_cell_length_c    5.37200
_cell_angle_alpha 90.00000
_cell_angle_beta  90.00000
_cell_angle_gamma 120.00000
 
loop_
_space_group_symop_id
_space_group_symop_operation_xyz
1 x,y,z
2 -y,x-y,z
3 -x+y,-x,z
4 x,x-y,-z
5 -x+y,y,-z
6 -y,-x,-z
7 -x,-y,-z
8 y,-x+y,-z
9 x-y,x,-z
10 -x,-x+y,z
11 x-y,-y,z
12 y,x,z
 
loop_
_atom_site_label
_atom_site_type_symbol
_atom_site_symmetry_multiplicity
_atom_site_Wyckoff_label
_atom_site_fract_x
_atom_site_fract_y
_atom_site_fract_z
_atom_site_occupancy
Pb1 Pb 1 a 0.00000 0.00000 0.00000 1.00000
Sb1 Sb 2 d 0.33333 0.66667 0.50000 1.00000
O1 O 6 k 0.37700 0.00000 0.29650 1.00000