# CIF file 
data_findsym-output
_audit_creation_method FINDSYM

_chemical_name_mineral 'F6GeK2'
_chemical_formula_sum 'F6 Ge K2'

loop_
_publ_author_name
 'J. L. Hoard'
 'W. B. Vincent'
_journal_name_full_name
;
 Journal of the American Chemical Society
;
_journal_volume 61
_journal_year 1939
_journal_page_first 2849
_journal_page_last 2852
_publ_Section_title
;
 Structures of Complex Fluorides. Potassium Hexafluogermanate and Ammonium Hexafluogermanate
;

# Found in The crystal structure of the compound Cs$_{2}$CeCl$_{6}$, 1966

_aflow_title 'K$_{2}$GeF$_{6}$ ($J1_{13}$) Structure'
_aflow_proto 'A6BC2_hP9_164_i_a_d'
_aflow_params 'a,c/a,z_{2},x_{3},z_{3}'
_aflow_params_values '5.62,0.827402135231,0.7,0.148,0.22'
_aflow_Strukturbericht '$J1_{13}$'
_aflow_Pearson 'hP9'

_symmetry_space_group_name_H-M "P -3 2/m 1"
_symmetry_Int_Tables_number 164
 
_cell_length_a    5.62000
_cell_length_b    5.62000
_cell_length_c    4.65000
_cell_angle_alpha 90.00000
_cell_angle_beta  90.00000
_cell_angle_gamma 120.00000
 
loop_
_space_group_symop_id
_space_group_symop_operation_xyz
1 x,y,z
2 -y,x-y,z
3 -x+y,-x,z
4 x-y,-y,-z
5 y,x,-z
6 -x,-x+y,-z
7 -x,-y,-z
8 y,-x+y,-z
9 x-y,x,-z
10 -x+y,y,z
11 -y,-x,z
12 x,x-y,z
 
loop_
_atom_site_label
_atom_site_type_symbol
_atom_site_symmetry_multiplicity
_atom_site_Wyckoff_label
_atom_site_fract_x
_atom_site_fract_y
_atom_site_fract_z
_atom_site_occupancy
Ge1 Ge 1 a 0.00000 0.00000 0.00000 1.00000
K1 K 2 d 0.33333 0.66667 0.70000 1.00000
F1 F 6 i 0.14800 0.29600 0.22000 1.00000