# CIF file 
data_findsym-output
_audit_creation_method FINDSYM

_chemical_name_mineral 'F4NaSb'
_chemical_formula_sum 'F6 Na Sb'

loop_
_publ_author_name
 'N. Schrewelius'
_journal_name_full_name
;
 Zeitschrift fur Anorganische und Allgemeine Chemie
;
_journal_volume 238
_journal_year 1938
_journal_page_first 241
_journal_page_last 254
_publ_Section_title
;
 R\"{o}ntgenuntersuchung der Verbindungen NaSb(OH)$_{6}$, NaSbF$_{6}$, NaSbO$_{3}$ und gleichartiger Stoffe
;

# Found in The American Mineralogist Crystal Structure Database, 2003

_aflow_title 'NaSbF$_{4}$(OH)$_{2}$ ($J1_{12}$) Structure'
_aflow_proto 'A6BC_hP16_163_i_b_c'
_aflow_params 'a,c/a,x_{3},y_{3},z_{3}'
_aflow_params_values '5.227,1.90931700784,0.33,0.33,0.15'
_aflow_Strukturbericht '$J1_{12}$'
_aflow_Pearson 'hP16'

_symmetry_space_group_name_H-M "P -3 1 2/c"
_symmetry_Int_Tables_number 163
 
_cell_length_a    5.22700
_cell_length_b    5.22700
_cell_length_c    9.98000
_cell_angle_alpha 90.00000
_cell_angle_beta  90.00000
_cell_angle_gamma 120.00000
 
loop_
_space_group_symop_id
_space_group_symop_operation_xyz
1 x,y,z
2 -y,x-y,z
3 -x+y,-x,z
4 x,x-y,-z+1/2
5 -x+y,y,-z+1/2
6 -y,-x,-z+1/2
7 -x,-y,-z
8 y,-x+y,-z
9 x-y,x,-z
10 -x,-x+y,z+1/2
11 x-y,-y,z+1/2
12 y,x,z+1/2
 
loop_
_atom_site_label
_atom_site_type_symbol
_atom_site_symmetry_multiplicity
_atom_site_Wyckoff_label
_atom_site_fract_x
_atom_site_fract_y
_atom_site_fract_z
_atom_site_occupancy
Na1 Na 2 b 0.00000 0.00000 0.00000 1.00000
Sb1 Sb 2 c 0.33333 0.66667 0.25000 1.00000
F1 F 12 i 0.33000 0.33000 0.15000 1.00000