# CIF file 
data_findsym-output
_audit_creation_method FINDSYM

_chemical_name_mineral 'O7V2Zn2'
_chemical_formula_sum 'O7 V2 Zn2'

loop_
_publ_author_name
 'R. Gopal'
 'C. Calvo'
_journal_name_full_name
;
 Canadian Journal of Chemistry
;
_journal_volume 51
_journal_year 1973
_journal_page_first 1004
_journal_page_last 1009
_publ_Section_title
;
 Crystal Structure of $\alpha$-Zn$_{2}$V$_{2}$O$_{7}$
;

# Found in $\alpha$ Cupric Divanadate, 1975

_aflow_title '$\alpha$-Zn$_{2}$V$_{2}$O$_{7}$ Structure'
_aflow_proto 'A7B2C2_mC44_15_e3f_f_f'
_aflow_params 'a,b/a,c/a,\beta,y_{1},x_{2},y_{2},z_{2},x_{3},y_{3},z_{3},x_{4},y_{4},z_{4},x_{5},y_{5},z_{5},x_{6},y_{6},z_{6}'
_aflow_params_values '7.429,1.12262754072,1.35926773455,111.37,0.0612,0.3984,-0.0189,0.362,0.244,0.1541,0.1056,0.1531,0.8353,0.1138,0.2016,0.0049,0.2058,-0.04958,0.3239,0.51955'
_aflow_Strukturbericht 'None'
_aflow_Pearson 'mC44'

_symmetry_space_group_name_H-M "C 1 2/c 1"
_symmetry_Int_Tables_number 15
 
_cell_length_a    7.42900
_cell_length_b    8.34000
_cell_length_c    10.09800
_cell_angle_alpha 90.00000
_cell_angle_beta  111.37000
_cell_angle_gamma 90.00000
 
loop_
_space_group_symop_id
_space_group_symop_operation_xyz
1 x,y,z
2 -x,y,-z+1/2
3 -x,-y,-z
4 x,-y,z+1/2
5 x+1/2,y+1/2,z
6 -x+1/2,y+1/2,-z+1/2
7 -x+1/2,-y+1/2,-z
8 x+1/2,-y+1/2,z+1/2
 
loop_
_atom_site_label
_atom_site_type_symbol
_atom_site_symmetry_multiplicity
_atom_site_Wyckoff_label
_atom_site_fract_x
_atom_site_fract_y
_atom_site_fract_z
_atom_site_occupancy
O1 O 4 e 0.00000 0.06120 0.25000 1.00000
O2 O 8 f 0.39840 -0.01890 0.36200 1.00000
O3 O 8 f 0.24400 0.15410 0.10560 1.00000
O4 O 8 f 0.15310 0.83530 0.11380 1.00000
V1 V 8 f 0.20160 0.00490 0.20580 1.00000
Zn1 Zn 8 f -0.04958 0.32390 0.51955 1.00000