# CIF file 
data_findsym-output
_audit_creation_method FINDSYM

_chemical_name_mineral 'Cl7OPTi'
_chemical_formula_sum 'Cl7 O P Ti'

loop_
_publ_author_name
 'C.-I. Br\"{a}nd\\'{e}n'
 'I. Lindqvist'
_journal_name_full_name
;
 Acta Chemica Scandinavica
;
_journal_volume 14
_journal_year 1960
_journal_page_first 726
_journal_page_last 732
_publ_Section_title
;
 The Crystal Structure of (TiCl$_{4}$$\cdot$POCl$_{3}$)$_{2}$
;

_aflow_title '(TiCl$_{4}$$\cdot$POCl$_{3}$)$_{2}$ Structure'
_aflow_proto 'A7BCD_oP80_61_7c_c_c_c'
_aflow_params 'a,b/a,c/a,x_{1},y_{1},z_{1},x_{2},y_{2},z_{2},x_{3},y_{3},z_{3},x_{4},y_{4},z_{4},x_{5},y_{5},z_{5},x_{6},y_{6},z_{6},x_{7},y_{7},z_{7},x_{8},y_{8},z_{8},x_{9},y_{9},z_{9},x_{10},y_{10},z_{10}'
_aflow_params_values '12.42,1.02737520129,1.08776167472,0.1062,0.5507,0.5424,0.2364,0.3205,0.5231,0.0098,0.2107,0.4306,0.0092,0.3285,0.6506,0.2852,0.5483,0.3103,0.2769,0.3103,0.2522,0.1207,0.4706,0.1548,0.1075,0.4124,0.3564,0.1875,0.4353,0.2819,0.0629,0.3616,0.4986'
_aflow_Strukturbericht 'None'
_aflow_Pearson 'oP80'

_symmetry_space_group_name_H-M "P 21/b 21/c 21/a"
_symmetry_Int_Tables_number 61
 
_cell_length_a    12.42000
_cell_length_b    12.76000
_cell_length_c    13.51000
_cell_angle_alpha 90.00000
_cell_angle_beta  90.00000
_cell_angle_gamma 90.00000
 
loop_
_space_group_symop_id
_space_group_symop_operation_xyz
1 x,y,z
2 x+1/2,-y+1/2,-z
3 -x,y+1/2,-z+1/2
4 -x+1/2,-y,z+1/2
5 -x,-y,-z
6 -x+1/2,y+1/2,z
7 x,-y+1/2,z+1/2
8 x+1/2,y,-z+1/2
 
loop_
_atom_site_label
_atom_site_type_symbol
_atom_site_symmetry_multiplicity
_atom_site_Wyckoff_label
_atom_site_fract_x
_atom_site_fract_y
_atom_site_fract_z
_atom_site_occupancy
Cl1 Cl 8 c 0.10620 0.55070 0.54240 1.00000
Cl2 Cl 8 c 0.23640 0.32050 0.52310 1.00000
Cl3 Cl 8 c 0.00980 0.21070 0.43060 1.00000
Cl4 Cl 8 c 0.00920 0.32850 0.65060 1.00000
Cl5 Cl 8 c 0.28520 0.54830 0.31030 1.00000
Cl6 Cl 8 c 0.27690 0.31030 0.25220 1.00000
Cl7 Cl 8 c 0.12070 0.47060 0.15480 1.00000
O1 O 8 c 0.10750 0.41240 0.35640 1.00000
P1 P 8 c 0.18750 0.43530 0.28190 1.00000
Ti1 Ti 8 c 0.06290 0.36160 0.49860 1.00000