# CIF file 
data_findsym-output
_audit_creation_method FINDSYM

_chemical_name_mineral 'B8Ru11'
_chemical_formula_sum 'B8 Ru11'

loop_
_publ_author_name
 'J. {\AA}selius'
_journal_name_full_name
;
 Acta Chemica Scandinavica
;
_journal_volume 14
_journal_year 1960
_journal_page_first 2169
_journal_page_last 2176
_publ_Section_title
;
 The Crystal Structure of Ru$_{11}$B$_{8}$
;

_aflow_title 'Ru$_{11}$B$_{8}$ Structure'
_aflow_proto 'A8B11_oP38_55_g3h_a3g2h'
_aflow_params 'a,b/a,c/a,x_{2},y_{2},x_{3},y_{3},x_{4},y_{4},x_{5},y_{5},x_{6},y_{6},x_{7},y_{7},x_{8},y_{8},x_{9},y_{9},x_{10},y_{10}'
_aflow_params_values '11.609,0.97700060298,0.244293220777,0.34,0.21,0.2844,0.3913,0.0429,0.3952,0.1686,0.174,0.13,0.01,0.15,0.32,0.27,0.25,0.4636,0.2962,0.3404,0.0616'
_aflow_Strukturbericht 'None'
_aflow_Pearson 'oP38'

_symmetry_space_group_name_H-M "P 21/b 21/a 2/m"
_symmetry_Int_Tables_number 55
 
_cell_length_a    11.60900
_cell_length_b    11.34200
_cell_length_c    2.83600
_cell_angle_alpha 90.00000
_cell_angle_beta  90.00000
_cell_angle_gamma 90.00000
 
loop_
_space_group_symop_id
_space_group_symop_operation_xyz
1 x,y,z
2 x+1/2,-y+1/2,-z
3 -x+1/2,y+1/2,-z
4 -x,-y,z
5 -x,-y,-z
6 -x+1/2,y+1/2,z
7 x+1/2,-y+1/2,z
8 x,y,-z
 
loop_
_atom_site_label
_atom_site_type_symbol
_atom_site_symmetry_multiplicity
_atom_site_Wyckoff_label
_atom_site_fract_x
_atom_site_fract_y
_atom_site_fract_z
_atom_site_occupancy
Ru1 Ru 2 a 0.00000 0.00000 0.00000 1.00000
B1 B 4 g 0.34000 0.21000 0.00000 1.00000
Ru2 Ru 4 g 0.28440 0.39130 0.00000 1.00000
Ru3 Ru 4 g 0.04290 0.39520 0.00000 1.00000
Ru4 Ru 4 g 0.16860 0.17400 0.00000 1.00000
B2 B 4 h 0.13000 0.01000 0.50000 1.00000
B3 B 4 h 0.15000 0.32000 0.50000 1.00000
B4 B 4 h 0.27000 0.25000 0.50000 1.00000
Ru5 Ru 4 h 0.46360 0.29620 0.50000 1.00000
Ru6 Ru 4 h 0.34040 0.06160 0.50000 1.00000