# CIF file 
data_findsym-output
_audit_creation_method FINDSYM

_chemical_name_mineral 'Mo8O23'
_chemical_formula_sum 'Mo8 O23'

loop_
_publ_author_name
 'H. Fujishita'
 'M. Sato'
 'S. Sato'
 'S. Hoshino'
_journal_name_full_name
;
 Journal of Solid State Chemistry
;
_journal_volume 66
_journal_year 1987
_journal_page_first 40
_journal_page_last 46
_publ_Section_title
;
 Structure Determination of low-dimensional conductor Mo$_{8}$O$_{23}$
;

_aflow_title 'High-Temperature Mo$_{8}$O$_{23}$ Structure'
_aflow_proto 'A8B23_mP62_13_4g_c11g'
_aflow_params 'a,b/a,c/a,\beta,x_{2},y_{2},z_{2},x_{3},y_{3},z_{3},x_{4},y_{4},z_{4},x_{5},y_{5},z_{5},x_{6},y_{6},z_{6},x_{7},y_{7},z_{7},x_{8},y_{8},z_{8},x_{9},y_{9},z_{9},x_{10},y_{10},z_{10},x_{11},y_{11},z_{11},x_{12},y_{12},z_{12},x_{13},y_{13},z_{13},x_{14},y_{14},z_{14},x_{15},y_{15},z_{15},x_{16},y_{16},z_{16}'
_aflow_params_values '13.384,0.303466826061,1.26143156007,106.27,0.06397,0.5858,0.41655,0.18514,0.4131,0.24568,0.31501,0.59,0.07903,0.44659,0.4079,0.40204,0.0658,-0.0012,0.4164,0.1911,-0.0029,0.2458,0.3191,0.0069,0.077,0.4469,-0.0082,0.4074,0.0645,0.4943,0.1643,0.1293,0.493,0.3303,0.1989,0.4945,0.496,0.2612,0.5144,0.1632,0.3261,0.4891,0.3282,0.4113,0.5015,0.0045,0.457,0.4908,0.1532'
_aflow_Strukturbericht 'None'
_aflow_Pearson 'mP62'

_symmetry_space_group_name_H-M "P 1 2/c 1"
_symmetry_Int_Tables_number 13
 
_cell_length_a    13.38400
_cell_length_b    4.06160
_cell_length_c    16.88300
_cell_angle_alpha 90.00000
_cell_angle_beta  106.27000
_cell_angle_gamma 90.00000
 
loop_
_space_group_symop_id
_space_group_symop_operation_xyz
1 x,y,z
2 -x,y,-z+1/2
3 -x,-y,-z
4 x,-y,z+1/2
 
loop_
_atom_site_label
_atom_site_type_symbol
_atom_site_symmetry_multiplicity
_atom_site_Wyckoff_label
_atom_site_fract_x
_atom_site_fract_y
_atom_site_fract_z
_atom_site_occupancy
O1 O 2 c 0.00000 0.50000 0.00000 1.00000
Mo1 Mo 4 g 0.06397 0.58580 0.41655 1.00000
Mo2 Mo 4 g 0.18514 0.41310 0.24568 1.00000
Mo3 Mo 4 g 0.31501 0.59000 0.07903 1.00000
Mo4 Mo 4 g 0.44659 0.40790 0.40204 1.00000
O2 O 4 g 0.06580 -0.00120 0.41640 1.00000
O3 O 4 g 0.19110 -0.00290 0.24580 1.00000
O4 O 4 g 0.31910 0.00690 0.07700 1.00000
O5 O 4 g 0.44690 -0.00820 0.40740 1.00000
O6 O 4 g 0.06450 0.49430 0.16430 1.00000
O7 O 4 g 0.12930 0.49300 0.33030 1.00000
O8 O 4 g 0.19890 0.49450 0.49600 1.00000
O9 O 4 g 0.26120 0.51440 0.16320 1.00000
O10 O 4 g 0.32610 0.48910 0.32820 1.00000
O11 O 4 g 0.41130 0.50150 0.00450 1.00000
O12 O 4 g 0.45700 0.49080 0.15320 1.00000