# CIF file 
data_findsym-output
_audit_creation_method FINDSYM

_chemical_name_mineral 'Cl8OPSb'
_chemical_formula_sum 'Cl8 O P Sb'

loop_
_publ_author_name
 'I. Lindqvist'
 'C.-I. Br\"{a}nd\\'{e}n'
_journal_name_full_name
;
 Acta Cristallographica
;
_journal_volume 12
_journal_year 1959
_journal_page_first 642
_journal_page_last 645
_publ_Section_title
;
 The Crystal Structure of SbCl$_{5}$$\cdot$POCl$_{3}$
;

# Found in The Crystal Structure of SbCl$_{5}$.PO(CH$_{3}$)$_{3}$, 1961

_aflow_title 'SbCl$_{5}$$\cdot$POCl$_{3}$ Structure'
_aflow_proto 'A8BCD_oP44_62_4c2d_c_c_c'
_aflow_params 'a,b/a,c/a,x_{1},z_{1},x_{2},z_{2},x_{3},z_{3},x_{4},z_{4},x_{5},z_{5},x_{6},z_{6},x_{7},z_{7},x_{8},y_{8},z_{8},x_{9},y_{9},z_{9}'
_aflow_params_values '16.42,0.490864799026,0.543848964677,0.2585,-0.0805,0.0202,0.2048,0.2249,0.2938,0.4644,0.8699,0.0706,0.8774,0.0742,0.7142,0.145,0.0797,0.1314,0.4442,0.6327,0.1405,0.5383,0.0597'
_aflow_Strukturbericht 'None'
_aflow_Pearson 'oP44'

_symmetry_space_group_name_H-M "P 21/n 21/m 21/a"
_symmetry_Int_Tables_number 62
 
_cell_length_a    16.42000
_cell_length_b    8.06000
_cell_length_c    8.93000
_cell_angle_alpha 90.00000
_cell_angle_beta  90.00000
_cell_angle_gamma 90.00000
 
loop_
_space_group_symop_id
_space_group_symop_operation_xyz
1 x,y,z
2 x+1/2,-y+1/2,-z+1/2
3 -x,y+1/2,-z
4 -x+1/2,-y,z+1/2
5 -x,-y,-z
6 -x+1/2,y+1/2,z+1/2
7 x,-y+1/2,z
8 x+1/2,y,-z+1/2
 
loop_
_atom_site_label
_atom_site_type_symbol
_atom_site_symmetry_multiplicity
_atom_site_Wyckoff_label
_atom_site_fract_x
_atom_site_fract_y
_atom_site_fract_z
_atom_site_occupancy
Cl1 Cl 4 c 0.25850 0.25000 -0.08050 1.00000
Cl2 Cl 4 c 0.02020 0.25000 0.20480 1.00000
Cl3 Cl 4 c 0.22490 0.25000 0.29380 1.00000
Cl4 Cl 4 c 0.46440 0.25000 0.86990 1.00000
O1 O 4 c 0.07060 0.25000 0.87740 1.00000
P1 P 4 c 0.07420 0.25000 0.71420 1.00000
Sb1 Sb 4 c 0.14500 0.25000 0.07970 1.00000
Cl5 Cl 8 d 0.13140 0.44420 0.63270 1.00000
Cl6 Cl 8 d 0.14050 0.53830 0.05970 1.00000