# CIF file 
data_findsym-output
_audit_creation_method FINDSYM

_chemical_name_mineral 'Cl9Cr2Cs3'
_chemical_formula_sum 'Cl9 Cr2 Cs3'

loop_
_publ_author_name
 'G. G. Wessel'
 'D. J. W. IJdo'
_journal_name_full_name
;
 Acta Cristallographica
;
_journal_volume 10
_journal_year 1957
_journal_page_first 466
_journal_page_last 468
_publ_Section_title
;
 The Crystal Structure of Cs$_{3}$Cr$_{2}$Cl$_{9}$
;

# Found in Structure of the dimer compounds Cs$_{3}$$R$$_{2}$Br$_{9}$ ($R$ = Tb, Dy, Ho, Er, Yb) at 8 and 295~K studied by neutron diffraction, 1989

_aflow_title 'Cs$_{3}$Cr$_{2}$Cl$_{9}$ Structure'
_aflow_proto 'A9B2C3_hP28_194_hk_f_bf'
_aflow_params 'a,c/a,z_{2},z_{3},x_{4},x_{5},z_{5}'
_aflow_params_values '7.22,2.48337950139,0.837,0.077,0.508,0.824,0.092'
_aflow_Strukturbericht 'None'
_aflow_Pearson 'hP28'

_symmetry_space_group_name_H-M "P 63/m 2/m 2/c"
_symmetry_Int_Tables_number 194
 
_cell_length_a    7.22000
_cell_length_b    7.22000
_cell_length_c    17.93000
_cell_angle_alpha 90.00000
_cell_angle_beta  90.00000
_cell_angle_gamma 120.00000
 
loop_
_space_group_symop_id
_space_group_symop_operation_xyz
1 x,y,z
2 x-y,x,z+1/2
3 -y,x-y,z
4 -x,-y,z+1/2
5 -x+y,-x,z
6 y,-x+y,z+1/2
7 x-y,-y,-z
8 x,x-y,-z+1/2
9 y,x,-z
10 -x+y,y,-z+1/2
11 -x,-x+y,-z
12 -y,-x,-z+1/2
13 -x,-y,-z
14 -x+y,-x,-z+1/2
15 y,-x+y,-z
16 x,y,-z+1/2
17 x-y,x,-z
18 -y,x-y,-z+1/2
19 -x+y,y,z
20 -x,-x+y,z+1/2
21 -y,-x,z
22 x-y,-y,z+1/2
23 x,x-y,z
24 y,x,z+1/2
 
loop_
_atom_site_label
_atom_site_type_symbol
_atom_site_symmetry_multiplicity
_atom_site_Wyckoff_label
_atom_site_fract_x
_atom_site_fract_y
_atom_site_fract_z
_atom_site_occupancy
Cs1 Cs 2 b 0.00000 0.00000 0.25000 1.00000
Cr1 Cr 4 f 0.33333 0.66667 0.83700 1.00000
Cs2 Cs 4 f 0.33333 0.66667 0.07700 1.00000
Cl1 Cl 6 h 0.50800 0.01600 0.25000 1.00000
Cl2 Cl 12 k 0.82400 0.64800 0.09200 1.00000