# CIF file 
data_findsym-output
_audit_creation_method FINDSYM

_chemical_name_mineral '$\gamma$-alum'
_chemical_formula_sum 'Al H24 Na O20 S2'

loop_
_publ_author_name
 'D. T. Cromer'
 'M. I. Kay'
 'A. C. Larson'
_journal_name_full_name
;
 Acta Cristallographica
;
_journal_volume 22
_journal_year 1967
_journal_page_first 182
_journal_page_last 187
_publ_Section_title
;
 Refinement of the alum structures. II. X-ray and neutron diffraction of NaAl(SO$_{4}$)$_{2}$$\cdot$12H$_{2}$O, $\gamma$-alum
;

# Found in The American Mineralogist Crystal Structure Database, 2003

_aflow_title '$\gamma$-Alum [AlNa(SO$_{4}$)$_{2}$$\cdot$12H$_{2}$O, $H4_{15}$] Structure'
_aflow_proto 'AB24CD20E2_cP192_205_a_4d_b_c3d_c'
_aflow_params 'a,x_{3},x_{4},x_{5},y_{5},z_{5},x_{6},y_{6},z_{6},x_{7},y_{7},z_{7},x_{8},y_{8},z_{8},x_{9},y_{9},z_{9},x_{10},y_{10},z_{10},x_{11},y_{11},z_{11}'
_aflow_params_values '12.213,0.3343,0.2652,0.585,0.319,0.378,0.486,0.308,0.383,0.555,0.202,0.502,0.588,0.339,0.113,0.2957,0.2783,0.1508,0.0767,0.0403,0.3188,0.1371,-0.0404,0.0573'
_aflow_Strukturbericht '$H4_{15}$'
_aflow_Pearson 'cP192'

_symmetry_space_group_name_H-M "P 21/a -3"
_symmetry_Int_Tables_number 205
 
_cell_length_a    12.21300
_cell_length_b    12.21300
_cell_length_c    12.21300
_cell_angle_alpha 90.00000
_cell_angle_beta  90.00000
_cell_angle_gamma 90.00000
 
loop_
_space_group_symop_id
_space_group_symop_operation_xyz
1 x,y,z
2 x+1/2,-y+1/2,-z
3 -x,y+1/2,-z+1/2
4 -x+1/2,-y,z+1/2
5 y,z,x
6 y+1/2,-z+1/2,-x
7 -y,z+1/2,-x+1/2
8 -y+1/2,-z,x+1/2
9 z,x,y
10 z+1/2,-x+1/2,-y
11 -z,x+1/2,-y+1/2
12 -z+1/2,-x,y+1/2
13 -x,-y,-z
14 -x+1/2,y+1/2,z
15 x,-y+1/2,z+1/2
16 x+1/2,y,-z+1/2
17 -y,-z,-x
18 -y+1/2,z+1/2,x
19 y,-z+1/2,x+1/2
20 y+1/2,z,-x+1/2
21 -z,-x,-y
22 -z+1/2,x+1/2,y
23 z,-x+1/2,y+1/2
24 z+1/2,x,-y+1/2
 
loop_
_atom_site_label
_atom_site_type_symbol
_atom_site_symmetry_multiplicity
_atom_site_Wyckoff_label
_atom_site_fract_x
_atom_site_fract_y
_atom_site_fract_z
_atom_site_occupancy
Al1 Al 4 a 0.0000 0.0000 0.0000 1.00000
Na1 Na 4 b 0.5000 0.5000 0.5000 1.00000
O1 O 8 c 0.3343 0.3343 0.3343 1.00000
S1 S 8 c 0.2652 0.2652 0.2652 1.00000
H1 H 24 d 0.5850 0.3190 0.3780 1.00000
H2 H 24 d 0.4860 0.3080 0.3830 1.00000
H3 H 24 d 0.5550 0.2020 0.5020 1.00000
H4 H 24 d 0.5880 0.3390 0.1130 1.00000
O2 O 24 d 0.2957 0.2783 0.1508 1.00000
O3 O 24 d 0.0767 0.0403 0.3188 1.00000
O4 O 24 d 0.1371 -0.0404 0.0573 1.00000