# CIF file 
data_findsym-output
_audit_creation_method FINDSYM

_chemical_name_mineral 'CuMg2'
_chemical_formula_sum 'Cu Mg2'

loop_
_publ_author_name
 'F. Gingl'
 'P. Selvam'
 'K. Yvon'
_journal_name_full_name
;
 Acta Crystallographica Section B: Structural Science
;
_journal_volume 49
_journal_year 1993
_journal_page_first 201
_journal_page_last 203
_publ_Section_title
;
 Structure refinement of Mg$_{2}$Cu and a comparison of the Mg$_{2}$Cu, Mg$_{2}$Ni and Al$_{2}$Cu structure types
;

# Found in Crystal Structure of CuMg$_{2}$, {Crystallography online.com}, 2018

_aflow_title 'Mg$_{2}$Cu ($C_{b}$) Structure'
_aflow_proto 'AB2_oF48_70_g_fg'
_aflow_params 'a,b/a,c/a,y_{1},z_{2},z_{3}'
_aflow_params_values '5.275,1.71450236967,3.47450236967,0.4586,0.49819,0.0415'
_aflow_Strukturbericht '$C_{b}$'
_aflow_Pearson 'oF48'

_symmetry_space_group_name_H-M "F 2/d 2/d 2/d (origin choice 2)"
_symmetry_Int_Tables_number 70
 
_cell_length_a    5.27500
_cell_length_b    9.04400
_cell_length_c    18.32800
_cell_angle_alpha 90.00000
_cell_angle_beta  90.00000
_cell_angle_gamma 90.00000
 
loop_
_space_group_symop_id
_space_group_symop_operation_xyz
1 x,y,z
2 x,-y+3/4,-z+3/4
3 -x+3/4,y,-z+3/4
4 -x+3/4,-y+3/4,z
5 -x,-y,-z
6 -x,y+1/4,z+1/4
7 x+1/4,-y,z+1/4
8 x+1/4,y+1/4,-z
9 x,y+1/2,z+1/2
10 x,-y+1/4,-z+1/4
11 -x+3/4,y+1/2,-z+1/4
12 -x+3/4,-y+1/4,z+1/2
13 -x,-y+1/2,-z+1/2
14 -x,y+3/4,z+3/4
15 x+1/4,-y+1/2,z+3/4
16 x+1/4,y+3/4,-z+1/2
17 x+1/2,y,z+1/2
18 x+1/2,-y+3/4,-z+1/4
19 -x+1/4,y,-z+1/4
20 -x+1/4,-y+3/4,z+1/2
21 -x+1/2,-y,-z+1/2
22 -x+1/2,y+1/4,z+3/4
23 x+3/4,-y,z+3/4
24 x+3/4,y+1/4,-z+1/2
25 x+1/2,y+1/2,z
26 x+1/2,-y+1/4,-z+3/4
27 -x+1/4,y+1/2,-z+3/4
28 -x+1/4,-y+1/4,z
29 -x+1/2,-y+1/2,-z
30 -x+1/2,y+3/4,z+1/4
31 x+3/4,-y+1/2,z+1/4
32 x+3/4,y+3/4,-z
 
loop_
_atom_site_label
_atom_site_type_symbol
_atom_site_symmetry_multiplicity
_atom_site_Wyckoff_label
_atom_site_fract_x
_atom_site_fract_y
_atom_site_fract_z
_atom_site_occupancy
Mg1 Mg 16 f 0.12500 0.45860 0.12500 1.00000
Cu1 Cu 16 g 0.12500 0.12500 0.49819 1.00000
Mg2 Mg 16 g 0.12500 0.12500 0.04150 1.00000
