# CIF file 
data_findsym-output
_audit_creation_method FINDSYM

_chemical_name_mineral 'AuTe2'
_chemical_formula_sum 'Au Te2'

loop_
_publ_author_name
 'F. Pertlik'
_journal_name_full_name
;
 Zeitschrift f{\"u}r Kristallographie - Crystalline Materials
;
_journal_volume 169
_journal_year 1984
_journal_page_first 227
_journal_page_last 236
_publ_Section_title
;
 Kristallchemie nat\"{u}licher Telluride III: Die Kristallstruktur des Minerals Calaverit, AuTe$_2$
;

_aflow_title 'Calaverite (AuTe$_{2}$) Structure'
_aflow_proto 'AB2_mP12_7_2a_4a'
_aflow_params 'a,b/a,c/a,\beta,x_{1},y_{1},z_{1},x_{2},y_{2},z_{2},x_{3},y_{3},z_{3},x_{4},y_{4},z_{4},x_{5},y_{5},z_{5},x_{6},y_{6},z_{6}'
_aflow_params_values '8.76,0.503424657534,1.15867579909,125.2,0.7483,0.4938,0.1243,0.246,-0.0059,0.8731,-0.0649,-0.0138,0.5728,0.5585,0.052,0.6747,0.0575,0.4464,0.4209,0.4363,0.5585,0.3235'
_aflow_Strukturbericht 'None'
_aflow_Pearson 'mP12'

_symmetry_space_group_name_H-M "P 1 c 1"
_symmetry_Int_Tables_number 7
 
_cell_length_a    8.76000
_cell_length_b    4.41000
_cell_length_c    10.15000
_cell_angle_alpha 90.00000
_cell_angle_beta  125.20000
_cell_angle_gamma 90.00000
 
loop_
_space_group_symop_id
_space_group_symop_operation_xyz
1 x,y,z
2 x,-y,z+1/2
 
loop_
_atom_site_label
_atom_site_type_symbol
_atom_site_symmetry_multiplicity
_atom_site_Wyckoff_label
_atom_site_fract_x
_atom_site_fract_y
_atom_site_fract_z
_atom_site_occupancy
Au1 Au 2 a 0.74830 0.49380 0.12430 1.00000
Au2 Au 2 a 0.24600 -0.00590 0.87310 1.00000
Te1 Te 2 a -0.06490 -0.01380 0.57280 1.00000
Te2 Te 2 a 0.55850 0.05200 0.67470 1.00000
Te3 Te 2 a 0.05750 0.44640 0.42090 1.00000
Te4 Te 2 a 0.43630 0.55850 0.32350 1.00000