# CIF file 
data_findsym-output
_audit_creation_method FINDSYM

_chemical_name_mineral 'NaS2'
_chemical_formula_sum 'Na S2'

loop_
_publ_author_name
 'R. Tegman'
_journal_name_full_name
;
 Acta Crystallographica Section B: Structural Science
;
_journal_volume 29
_journal_year 1973
_journal_page_first 1463
_journal_page_last 1469
_publ_Section_title
;
 The Crystal Structure of Sodium Tetrasulphide, Na$_{2}$S$_{4}$
;

# Found in Pearson's Handbook of Crystallographic Data for Intermetallic Phases, 1991

_aflow_title 'NaS$_{2}$ Structure'
_aflow_proto 'AB2_tI48_122_cd_2e'
_aflow_params 'a,c/a,z_{1},x_{2},x_{3},y_{3},z_{3},x_{4},y_{4},z_{4}'
_aflow_params_values '9.5965,1.22841661022,0.16953,0.27647,0.03373,0.24952,0.29644,0.14693,0.116,0.39956'
_aflow_Strukturbericht 'None'
_aflow_Pearson 'tI48'

_symmetry_space_group_name_H-M "I -4 2 d"
_symmetry_Int_Tables_number 122
 
_cell_length_a    9.59650
_cell_length_b    9.59650
_cell_length_c    11.78850
_cell_angle_alpha 90.00000
_cell_angle_beta  90.00000
_cell_angle_gamma 90.00000
 
loop_
_space_group_symop_id
_space_group_symop_operation_xyz
1 x,y,z
2 x,-y+1/2,-z+1/4
3 -x,y+1/2,-z+1/4
4 -x,-y,z
5 y,x+1/2,z+1/4
6 y,-x,-z
7 -y,x,-z
8 -y,-x+1/2,z+1/4
9 x+1/2,y+1/2,z+1/2
10 x+1/2,-y,-z+3/4
11 -x+1/2,y,-z+3/4
12 -x+1/2,-y+1/2,z+1/2
13 y+1/2,x,z+3/4
14 y+1/2,-x+1/2,-z+1/2
15 -y+1/2,x+1/2,-z+1/2
16 -y+1/2,-x,z+3/4
 
loop_
_atom_site_label
_atom_site_type_symbol
_atom_site_symmetry_multiplicity
_atom_site_Wyckoff_label
_atom_site_fract_x
_atom_site_fract_y
_atom_site_fract_z
_atom_site_occupancy
Na1 Na 8 c 0.00000 0.00000 0.16953 1.00000
Na2 Na 8 d 0.27647 0.25000 0.12500 1.00000
S1 S 16 e 0.03373 0.24952 0.29644 1.00000
S2 S 16 e 0.14693 0.11600 0.39956 1.00000