# CIF file 
data_findsym-output
_audit_creation_method FINDSYM

_chemical_name_mineral 'Columbite'
_chemical_formula_sum 'Fe Nb2 O6'

loop_
_publ_author_name
 'P. Bordet'
 'A. {McHale}'
 'A. Santoro'
 'R. S. Roth'
_journal_name_full_name
;
 Journal of Solid State Chemistry
;
_journal_volume 64
_journal_year 1986
_journal_page_first 30
_journal_page_last 46
_publ_Section_title
;
 Powder neutron diffraction study of ZrTiO$_{4}$, Zr$_{5}$Ti$_{7}$O$_{24}$, and FeNb$_{2}$O$_{6}$
;

# Found in The American Mineralogist Crystal Structure Database, 2003

_aflow_title 'Columbite (FeNb$_{2}$O$_{6}$, $E5_{1}$) Structure'
_aflow_proto 'AB2C6_oP36_60_c_d_3d'
_aflow_params 'a,b/a,c/a,y_{1},x_{2},y_{2},z_{2},x_{3},y_{3},z_{3},x_{4},y_{4},z_{4},x_{5},y_{5},z_{5}'
_aflow_params_values '14.2661,0.401889794688,0.353950974688,0.3311,0.3389,0.3191,0.2506,0.0963,0.1041,0.0727,0.4189,0.1163,0.099,0.756,0.1236,0.0793'
_aflow_Strukturbericht '$E5_{1}$'
_aflow_Pearson 'oP36'

_symmetry_space_group_name_H-M "P 21/b 2/c 21/n"
_symmetry_Int_Tables_number 60
 
_cell_length_a    14.26610
_cell_length_b    5.73340
_cell_length_c    5.04950
_cell_angle_alpha 90.00000
_cell_angle_beta  90.00000
_cell_angle_gamma 90.00000
 
loop_
_space_group_symop_id
_space_group_symop_operation_xyz
1 x,y,z
2 x+1/2,-y+1/2,-z
3 -x,y,-z+1/2
4 -x+1/2,-y+1/2,z+1/2
5 -x,-y,-z
6 -x+1/2,y+1/2,z
7 x,-y,z+1/2
8 x+1/2,y+1/2,-z+1/2
 
loop_
_atom_site_label
_atom_site_type_symbol
_atom_site_symmetry_multiplicity
_atom_site_Wyckoff_label
_atom_site_fract_x
_atom_site_fract_y
_atom_site_fract_z
_atom_site_occupancy
Fe1 Fe 4 c 0.00000 0.33110 0.25000 1.00000
Nb1 Nb 8 d 0.33890 0.31910 0.25060 1.00000
O1 O 8 d 0.09630 0.10410 0.07270 1.00000
O2 O 8 d 0.41890 0.11630 0.09900 1.00000
O3 O 8 d 0.75600 0.12360 0.07930 1.00000
