# CIF file 
data_findsym-output
_audit_creation_method FINDSYM

_chemical_name_mineral 'Lepidocrocite'
_chemical_formula_sum 'Fe H2 O2'

loop_
_publ_author_name
 'A. {N{\o}rlund Christensen}'
 'M. S. Lehmann'
 'P. Convert'
_journal_name_full_name
;
 Acta Chemica Scandinavica
;
_journal_volume 36a
_journal_year 1982
_journal_page_first 303
_journal_page_last 308
_publ_Section_title
;
 Deuteration of Crystalline Hydroxides, Hydrogen Bonds of $\gamma$-AlOO(H,D) and $\gamma$-FeOO(H,D)
;

# Found in The American Mineralogist Crystal Structure Database, 2003

_aflow_title 'Lepidocrocite ($\gamma$-FeO(OH), $E0_{4}$) Structure'
_aflow_proto 'AB2C2_oC20_63_c_f_2c'
_aflow_params 'a,b/a,c/a,y_{1},y_{2},y_{3},y_{4},z_{4}'
_aflow_params_values '3.07,4.08143322476,1.22475570033,-0.3137,0.2842,0.0724,0.0143,0.3663'
_aflow_Strukturbericht '$E0_{4}$'
_aflow_Pearson 'oC20'

_symmetry_space_group_name_H-M "C 2/m 2/c 21/m"
_symmetry_Int_Tables_number 63
 
_cell_length_a    3.07000
_cell_length_b    12.53000
_cell_length_c    3.76000
_cell_angle_alpha 90.00000
_cell_angle_beta  90.00000
_cell_angle_gamma 90.00000
 
loop_
_space_group_symop_id
_space_group_symop_operation_xyz
1 x,y,z
2 x,-y,-z
3 -x,y,-z+1/2
4 -x,-y,z+1/2
5 -x,-y,-z
6 -x,y,z
7 x,-y,z+1/2
8 x,y,-z+1/2
9 x+1/2,y+1/2,z
10 x+1/2,-y+1/2,-z
11 -x+1/2,y+1/2,-z+1/2
12 -x+1/2,-y+1/2,z+1/2
13 -x+1/2,-y+1/2,-z
14 -x+1/2,y+1/2,z
15 x+1/2,-y+1/2,z+1/2
16 x+1/2,y+1/2,-z+1/2
 
loop_
_atom_site_label
_atom_site_type_symbol
_atom_site_symmetry_multiplicity
_atom_site_Wyckoff_label
_atom_site_fract_x
_atom_site_fract_y
_atom_site_fract_z
_atom_site_occupancy
Fe1 Fe 4 c 0.00000 -0.31370 0.25000 1.00000
O1 O 4 c 0.00000 0.28420 0.25000 1.00000
O2 O 4 c 0.00000 0.07240 0.25000 1.00000
H1 H 8 f 0.00000 0.01430 0.36630 0.47100