# CIF file 
data_findsym-output
_audit_creation_method FINDSYM

_chemical_name_mineral 'FeSe2Tl'
_chemical_formula_sum 'Fe Se2 Tl'

loop_
_publ_author_name
 'K. Klepp'
 'H. Boller'
_journal_name_full_name
;
 Monatshefte f{\"u}r Chemie - Chemical Monthly
;
_journal_volume 110
_journal_year 1979
_journal_page_first 1045
_journal_page_last 1055
_publ_Section_title
;
 Die Kristallstruktur von TIFeSe$_{2}$ und T1FeS$_{2}$
;

_aflow_title 'Monoclinic FeTlSe$_{2}$ Structure'
_aflow_proto 'AB2C_mC16_12_g_2i_i'
_aflow_params 'a,b/a,c/a,\beta,y_{1},x_{2},z_{2},x_{3},z_{3},x_{4},z_{4}'
_aflow_params_values '11.973,0.458531696317,0.593836131295,118.2,0.2493,0.5357,0.2899,0.1783,0.0907,0.1752,0.6314'
_aflow_Strukturbericht 'None'
_aflow_Pearson 'mC16'

_symmetry_space_group_name_H-M "C 1 2/m 1"
_symmetry_Int_Tables_number 12
 
_cell_length_a    11.97300
_cell_length_b    5.49000
_cell_length_c    7.11000
_cell_angle_alpha 90.00000
_cell_angle_beta  118.20000
_cell_angle_gamma 90.00000
 
loop_
_space_group_symop_id
_space_group_symop_operation_xyz
1 x,y,z
2 -x,y,-z
3 -x,-y,-z
4 x,-y,z
5 x+1/2,y+1/2,z
6 -x+1/2,y+1/2,-z
7 -x+1/2,-y+1/2,-z
8 x+1/2,-y+1/2,z
 
loop_
_atom_site_label
_atom_site_type_symbol
_atom_site_symmetry_multiplicity
_atom_site_Wyckoff_label
_atom_site_fract_x
_atom_site_fract_y
_atom_site_fract_z
_atom_site_occupancy
Fe1 Fe 4 g 0.00000 0.24930 0.00000 1.00000
Se1 Se 4 i 0.53570 0.00000 0.28990 1.00000
Se2 Se 4 i 0.17830 0.00000 0.09070 1.00000
Tl1 Tl 4 i 0.17520 0.00000 0.63140 1.00000