# CIF file 
data_findsym-output
_audit_creation_method FINDSYM

_chemical_name_mineral 'CoNa0.74O2'
_chemical_formula_sum 'Co Na2 O2'

loop_
_publ_author_name
 'R. J. Balsys'
 'R. L. Davis'
_journal_name_full_name
;
 Solid State Ionics
;
_journal_volume 93
_journal_year 1997
_journal_page_first 279
_journal_page_last 282
_publ_Section_title
;
 Refinement of the structure of Na$_{0.74}$CoO$_{2}$ using neutron powder diffraction
;

# Found in S. Sk, J. Pati, R. S. Dhaka, and. Exploring the possibility of enhancing the figure-of-merit ($> 2$) of Na$_{0.74}$CoO$_{2}$: A combined experimental and theoretical study. Eur. Phys. J. B 93, 155 (2020)

_aflow_title 'Na$_{0.74}$CoO$_{2}$ Structure'
_aflow_proto 'AB2C2_hP10_194_a_bc_f'
_aflow_params 'a,c/a,z_{4}'
_aflow_params_values '2.84,3.80669014085,0.0913'
_aflow_Strukturbericht 'None'
_aflow_Pearson 'hP10'

_symmetry_space_group_name_H-M "P 63/m 2/m 2/c"
_symmetry_Int_Tables_number 194
 
_cell_length_a    2.84000
_cell_length_b    2.84000
_cell_length_c    10.81100
_cell_angle_alpha 90.00000
_cell_angle_beta  90.00000
_cell_angle_gamma 120.00000
 
loop_
_space_group_symop_id
_space_group_symop_operation_xyz
1 x,y,z
2 x-y,x,z+1/2
3 -y,x-y,z
4 -x,-y,z+1/2
5 -x+y,-x,z
6 y,-x+y,z+1/2
7 x-y,-y,-z
8 x,x-y,-z+1/2
9 y,x,-z
10 -x+y,y,-z+1/2
11 -x,-x+y,-z
12 -y,-x,-z+1/2
13 -x,-y,-z
14 -x+y,-x,-z+1/2
15 y,-x+y,-z
16 x,y,-z+1/2
17 x-y,x,-z
18 -y,x-y,-z+1/2
19 -x+y,y,z
20 -x,-x+y,z+1/2
21 -y,-x,z
22 x-y,-y,z+1/2
23 x,x-y,z
24 y,x,z+1/2
 
loop_
_atom_site_label
_atom_site_type_symbol
_atom_site_symmetry_multiplicity
_atom_site_Wyckoff_label
_atom_site_fract_x
_atom_site_fract_y
_atom_site_fract_z
_atom_site_occupancy
Co1 Co 2 a 0.00000 0.00000 0.00000 1.00000
Na1 Na 2 b 0.00000 0.00000 0.25000 0.21000
Na2 Na 2 c 0.33333 0.66667 0.25000 0.51000
O1 O 4 f 0.33333 0.66667 0.09130 1.00000
