# CIF file 
data_findsym-output
_audit_creation_method FINDSYM

_chemical_name_mineral 'Parkerite'
_chemical_formula_sum 'Bi Ni2 S'

loop_
_publ_author_name
 'M. E. Fleet'
_journal_name_full_name
;
 American Mineralogist
;
_journal_volume 58
_journal_year 1973
_journal_page_first 435
_journal_page_last 439
_publ_Section_title
;
 The Crystal Structure of Parkerite (Ni$_{3}$Bi$_{2}$S$_{2}$)
;

_aflow_title 'Parkerite (Ni$_{3}$Bi$_{2}$S$_{2}$) Structure'
_aflow_proto 'AB2C_oP8_51_e_be_f'
_aflow_params 'a,b/a,c/a,z_{2},z_{3},z_{4}'
_aflow_params_values '5.545,0.730748422002,1.03354373309,0.7423,0.204,0.256'
_aflow_Strukturbericht 'None'
_aflow_Pearson 'oP8'

_symmetry_space_group_name_H-M "P 21/m 2/m 2/a"
_symmetry_Int_Tables_number 51
 
_cell_length_a    5.54500
_cell_length_b    4.05200
_cell_length_c    5.73100
_cell_angle_alpha 90.00000
_cell_angle_beta  90.00000
_cell_angle_gamma 90.00000
 
loop_
_space_group_symop_id
_space_group_symop_operation_xyz
1 x,y,z
2 x+1/2,-y,-z
3 -x,y,-z
4 -x+1/2,-y,z
5 -x,-y,-z
6 -x+1/2,y,z
7 x,-y,z
8 x+1/2,y,-z
 
loop_
_atom_site_label
_atom_site_type_symbol
_atom_site_symmetry_multiplicity
_atom_site_Wyckoff_label
_atom_site_fract_x
_atom_site_fract_y
_atom_site_fract_z
_atom_site_occupancy
Ni1 Ni 2 b 0.00000 0.50000 0.00000 1.00000
Bi1 Bi 2 e 0.25000 0.00000 0.74230 1.00000
Ni2 Ni 2 e 0.25000 0.00000 0.20400 0.50000
S1 S 2 f 0.25000 0.50000 0.25600 1.00000