# CIF file 
data_findsym-output
_audit_creation_method FINDSYM

_chemical_name_mineral 'SV3'
_chemical_formula_sum 'S V3'

loop_
_publ_author_name
 'B. Pedersen'
 'F. Gr{\o}nvold'
_journal_name_full_name
;
 Acta Cristallographica
;
_journal_volume 12
_journal_year 1959
_journal_page_first 1022
_journal_page_last 1027
_publ_Section_title
;
 The Crystal Structures of $\alpha$-V$_{3}$S and $\beta$-V$_{3}$S
;

_aflow_title '$\alpha$-V$_{3}$S Structure'
_aflow_proto 'AB3_tI32_121_g_f2i'
_aflow_params 'a,c/a,x_{1},x_{2},x_{3},z_{3},x_{4},z_{4}'
_aflow_params_values '9.47,0.484582893347,0.355,0.2851,0.5932,0.25,0.2,0.25'
_aflow_Strukturbericht 'None'
_aflow_Pearson 'tI32'

_symmetry_space_group_name_H-M "I -4 2 m"
_symmetry_Int_Tables_number 121
 
_cell_length_a    9.47000
_cell_length_b    9.47000
_cell_length_c    4.58900
_cell_angle_alpha 90.00000
_cell_angle_beta  90.00000
_cell_angle_gamma 90.00000
 
loop_
_space_group_symop_id
_space_group_symop_operation_xyz
1 x,y,z
2 x,-y,-z
3 -x,y,-z
4 -x,-y,z
5 y,x,z
6 y,-x,-z
7 -y,x,-z
8 -y,-x,z
9 x+1/2,y+1/2,z+1/2
10 x+1/2,-y+1/2,-z+1/2
11 -x+1/2,y+1/2,-z+1/2
12 -x+1/2,-y+1/2,z+1/2
13 y+1/2,x+1/2,z+1/2
14 y+1/2,-x+1/2,-z+1/2
15 -y+1/2,x+1/2,-z+1/2
16 -y+1/2,-x+1/2,z+1/2
 
loop_
_atom_site_label
_atom_site_type_symbol
_atom_site_symmetry_multiplicity
_atom_site_Wyckoff_label
_atom_site_fract_x
_atom_site_fract_y
_atom_site_fract_z
_atom_site_occupancy
V1 V 8 f 0.35500 0.00000 0.00000 1.00000
S1 S 8 g 0.28510 0.00000 0.50000 1.00000
V2 V 8 i 0.59320 0.59320 0.25000 1.00000
V3 V 8 i 0.20000 0.20000 0.25000 1.00000