# CIF file 
data_findsym-output
_audit_creation_method FINDSYM

_chemical_name_mineral 'AsMn3'
_chemical_formula_sum 'As Mn3'

loop_
_publ_author_name
 'W. {Carrillo-Cabrera}'
_journal_name_full_name
;
 Acta Chemica Scandinavica
;
_journal_volume 37a
_journal_year 1983
_journal_page_first 93
_journal_page_last 98
_publ_Section_title
;
 The Crystal Structure of TiCu$_{2}$P and Its Relationship to the Structure of Mn$_{3}$As
;

_aflow_title 'Mn$_{3}$As ($D0_{d}$) Structure'
_aflow_proto 'AB3_oC16_63_c_3c'
_aflow_params 'a,b/a,c/a,y_{1},y_{2},y_{3},y_{4}'
_aflow_params_values '3.78779,4.28999759754,1.0,0.159,-0.0565,0.5565,0.3155'
_aflow_Strukturbericht '$D0_{d}$'
_aflow_Pearson 'oC16'

_symmetry_space_group_name_H-M "C 2/m 2/c 21/m"
_symmetry_Int_Tables_number 63
 
_cell_length_a    3.78779
_cell_length_b    16.24961
_cell_length_c    3.78779
_cell_angle_alpha 90.00000
_cell_angle_beta  90.00000
_cell_angle_gamma 90.00000
 
loop_
_space_group_symop_id
_space_group_symop_operation_xyz
1 x,y,z
2 x,-y,-z
3 -x,y,-z+1/2
4 -x,-y,z+1/2
5 -x,-y,-z
6 -x,y,z
7 x,-y,z+1/2
8 x,y,-z+1/2
9 x+1/2,y+1/2,z
10 x+1/2,-y+1/2,-z
11 -x+1/2,y+1/2,-z+1/2
12 -x+1/2,-y+1/2,z+1/2
13 -x+1/2,-y+1/2,-z
14 -x+1/2,y+1/2,z
15 x+1/2,-y+1/2,z+1/2
16 x+1/2,y+1/2,-z+1/2
 
loop_
_atom_site_label
_atom_site_type_symbol
_atom_site_symmetry_multiplicity
_atom_site_Wyckoff_label
_atom_site_fract_x
_atom_site_fract_y
_atom_site_fract_z
_atom_site_occupancy
As1 As 4 c 0.00000 0.15900 0.25000 1.00000
Mn1 Mn 4 c 0.00000 -0.05650 0.25000 1.00000
Mn2 Mn 4 c 0.00000 0.55650 0.25000 1.00000
Mn3 Mn 4 c 0.00000 0.31550 0.25000 1.00000