# CIF file 
data_findsym-output
_audit_creation_method FINDSYM

_chemical_name_mineral 'CrO3'
_chemical_formula_sum 'Cr O3'

loop_
_publ_author_name
 'H. Br\"{a}kken'
_journal_name_full_name
;
 Zeitschrift f{\"u}r Kristallographie - Crystalline Materials
;
_journal_volume 78
_journal_year 1931
_journal_page_first 484
_journal_page_last 488
_publ_Section_title
;
 Die Kristallstrukturen der Trioxyde von Chrom, Molybd\"{a}n und Wolfram
;

# Found in The Crystal Structure of Chromium Trioxide, 1950

_aflow_title '$D0_{7}$ (CrO$_{3}$) ({\em{obsolete}}) Structure'
_aflow_proto 'AB3_oC16_20_a_bc'
_aflow_params 'a,b/a,c/a,x_{1},y_{2},x_{3},y_{3},z_{3}'
_aflow_params_values '8.46,0.563829787234,0.673758865248,0.33333,0.33333,0.16667,-0.16667,0.25'
_aflow_Strukturbericht '$D0_{7}$'
_aflow_Pearson 'oC16'

_symmetry_space_group_name_H-M "C 2 2 21"
_symmetry_Int_Tables_number 20
 
_cell_length_a    8.46000
_cell_length_b    4.77000
_cell_length_c    5.70000
_cell_angle_alpha 90.00000
_cell_angle_beta  90.00000
_cell_angle_gamma 90.00000
 
loop_
_space_group_symop_id
_space_group_symop_operation_xyz
1 x,y,z
2 x,-y,-z
3 -x,y,-z+1/2
4 -x,-y,z+1/2
5 x+1/2,y+1/2,z
6 x+1/2,-y+1/2,-z
7 -x+1/2,y+1/2,-z+1/2
8 -x+1/2,-y+1/2,z+1/2
 
loop_
_atom_site_label
_atom_site_type_symbol
_atom_site_symmetry_multiplicity
_atom_site_Wyckoff_label
_atom_site_fract_x
_atom_site_fract_y
_atom_site_fract_z
_atom_site_occupancy
Cr1 Cr 4 a 0.33333 0.00000 0.00000 1.00000
O1 O 4 b 0.00000 0.33333 0.25000 1.00000
O2 O 8 c 0.16667 -0.16667 0.25000 1.00000
