# CIF file 
data_findsym-output
_audit_creation_method FINDSYM

_chemical_name_mineral 'BLa3O9W'
_chemical_formula_sum 'B La3 O9 W'

loop_
_publ_author_name
 'J. Han'
 'F. Pan'
 'M. S. Molokeev'
 'J. Dai'
 'M. Peng'
 'W. Zhou'
 'J. Wang'
_journal_name_full_name
;
 ACS Applied Materials and Interfaces
;
_journal_volume 10
_journal_year 2018
_journal_page_first 13660
_journal_page_last 13668
_publ_Section_title
;
 Redefinition of Crystal Structure and Bi$^{3+}$ Yellow Luminescence with Strong Near-Ultraviolet Excitation in La$_{3}$BWO$_{9}$:Bi$^{3+}$ Phosphor for White Light-Emitting Diodes
;

_aflow_title 'La$_{3}$BWO$_{9}$ ($P6_{3}$) Structure'
_aflow_proto 'AB3C9D_hP28_173_a_c_3c_b'
_aflow_params 'a,c/a,z_{1},z_{2},x_{3},y_{3},z_{3},x_{4},y_{4},z_{4},x_{5},y_{5},z_{5},x_{6},y_{6},z_{6}'
_aflow_params_values '8.84324,0.630487242232,0.358,0.25,0.3636,0.0854,0.2213,0.17,0.047,0.861,0.192,0.483,0.044,0.142,0.517,0.468'
_aflow_Strukturbericht 'None'
_aflow_Pearson 'hP28'

_symmetry_space_group_name_H-M "P 63"
_symmetry_Int_Tables_number 173
 
_cell_length_a    8.84324
_cell_length_b    8.84324
_cell_length_c    5.57555
_cell_angle_alpha 90.00000
_cell_angle_beta  90.00000
_cell_angle_gamma 120.00000
 
loop_
_space_group_symop_id
_space_group_symop_operation_xyz
1 x,y,z
2 x-y,x,z+1/2
3 -y,x-y,z
4 -x,-y,z+1/2
5 -x+y,-x,z
6 y,-x+y,z+1/2
 
loop_
_atom_site_label
_atom_site_type_symbol
_atom_site_symmetry_multiplicity
_atom_site_Wyckoff_label
_atom_site_fract_x
_atom_site_fract_y
_atom_site_fract_z
_atom_site_occupancy
B1 B 2 a 0.00000 0.00000 0.35800 1.00000
W1 W 2 b 0.33333 0.66667 0.25000 1.00000
La1 La 6 c 0.36360 0.08540 0.22130 1.00000
O1 O 6 c 0.17000 0.04700 0.86100 1.00000
O2 O 6 c 0.19200 0.48300 0.04400 1.00000
O3 O 6 c 0.14200 0.51700 0.46800 1.00000
