# CIF file 
data_findsym-output
_audit_creation_method FINDSYM

_chemical_name_mineral 'CoK3N6O12'
_chemical_formula_sum 'Co K3 N6 O12'

loop_
_publ_author_name
 'M. {van Driel}'
 'H. J. Verweel'
_journal_name_full_name
;
 Zeitschrift f{\"u}r Kristallographie - Crystalline Materials
;
_journal_volume 95
_journal_year 1936
_journal_page_first 308
_journal_page_last 314
_publ_Section_title
;
 \"{U}ber die Struktur der Tripelnitrite
;

# Found in Strukturbericht Band IV 1936, 1938

_aflow_title 'K$_{3}$Co(NO$_{2}$)$_{6}$ ($J2_{4}$) Structure'
_aflow_proto 'AB3C6D12_cF88_202_a_bc_e_h'
_aflow_params 'a,x_{4},y_{5},z_{5}'
_aflow_params_values '10.46,0.195,0.235,0.1'
_aflow_Strukturbericht '$J2_{4}$'
_aflow_Pearson 'cF88'

_symmetry_space_group_name_H-M "F 2/m -3"
_symmetry_Int_Tables_number 202
 
_cell_length_a    10.46000
_cell_length_b    10.46000
_cell_length_c    10.46000
_cell_angle_alpha 90.00000
_cell_angle_beta  90.00000
_cell_angle_gamma 90.00000
 
loop_
_space_group_symop_id
_space_group_symop_operation_xyz
1 x,y,z
2 x,-y,-z
3 -x,y,-z
4 -x,-y,z
5 y,z,x
6 y,-z,-x
7 -y,z,-x
8 -y,-z,x
9 z,x,y
10 z,-x,-y
11 -z,x,-y
12 -z,-x,y
13 -x,-y,-z
14 -x,y,z
15 x,-y,z
16 x,y,-z
17 -y,-z,-x
18 -y,z,x
19 y,-z,x
20 y,z,-x
21 -z,-x,-y
22 -z,x,y
23 z,-x,y
24 z,x,-y
25 x,y+1/2,z+1/2
26 x,-y+1/2,-z+1/2
27 -x,y+1/2,-z+1/2
28 -x,-y+1/2,z+1/2
29 y,z+1/2,x+1/2
30 y,-z+1/2,-x+1/2
31 -y,z+1/2,-x+1/2
32 -y,-z+1/2,x+1/2
33 z,x+1/2,y+1/2
34 z,-x+1/2,-y+1/2
35 -z,x+1/2,-y+1/2
36 -z,-x+1/2,y+1/2
37 -x,-y+1/2,-z+1/2
38 -x,y+1/2,z+1/2
39 x,-y+1/2,z+1/2
40 x,y+1/2,-z+1/2
41 -y,-z+1/2,-x+1/2
42 -y,z+1/2,x+1/2
43 y,-z+1/2,x+1/2
44 y,z+1/2,-x+1/2
45 -z,-x+1/2,-y+1/2
46 -z,x+1/2,y+1/2
47 z,-x+1/2,y+1/2
48 z,x+1/2,-y+1/2
49 x+1/2,y,z+1/2
50 x+1/2,-y,-z+1/2
51 -x+1/2,y,-z+1/2
52 -x+1/2,-y,z+1/2
53 y+1/2,z,x+1/2
54 y+1/2,-z,-x+1/2
55 -y+1/2,z,-x+1/2
56 -y+1/2,-z,x+1/2
57 z+1/2,x,y+1/2
58 z+1/2,-x,-y+1/2
59 -z+1/2,x,-y+1/2
60 -z+1/2,-x,y+1/2
61 -x+1/2,-y,-z+1/2
62 -x+1/2,y,z+1/2
63 x+1/2,-y,z+1/2
64 x+1/2,y,-z+1/2
65 -y+1/2,-z,-x+1/2
66 -y+1/2,z,x+1/2
67 y+1/2,-z,x+1/2
68 y+1/2,z,-x+1/2
69 -z+1/2,-x,-y+1/2
70 -z+1/2,x,y+1/2
71 z+1/2,-x,y+1/2
72 z+1/2,x,-y+1/2
73 x+1/2,y+1/2,z
74 x+1/2,-y+1/2,-z
75 -x+1/2,y+1/2,-z
76 -x+1/2,-y+1/2,z
77 y+1/2,z+1/2,x
78 y+1/2,-z+1/2,-x
79 -y+1/2,z+1/2,-x
80 -y+1/2,-z+1/2,x
81 z+1/2,x+1/2,y
82 z+1/2,-x+1/2,-y
83 -z+1/2,x+1/2,-y
84 -z+1/2,-x+1/2,y
85 -x+1/2,-y+1/2,-z
86 -x+1/2,y+1/2,z
87 x+1/2,-y+1/2,z
88 x+1/2,y+1/2,-z
89 -y+1/2,-z+1/2,-x
90 -y+1/2,z+1/2,x
91 y+1/2,-z+1/2,x
92 y+1/2,z+1/2,-x
93 -z+1/2,-x+1/2,-y
94 -z+1/2,x+1/2,y
95 z+1/2,-x+1/2,y
96 z+1/2,x+1/2,-y
 
loop_
_atom_site_label
_atom_site_type_symbol
_atom_site_symmetry_multiplicity
_atom_site_Wyckoff_label
_atom_site_fract_x
_atom_site_fract_y
_atom_site_fract_z
_atom_site_occupancy
Co1 Co 4 a 0.00000 0.00000 0.00000 1.00000
K1 K 4 b 0.50000 0.50000 0.50000 1.00000
K2 K 8 c 0.25000 0.25000 0.25000 1.00000
N1 N 24 e 0.19500 0.00000 0.00000 1.00000
O1 O 48 h 0.00000 0.23500 0.10000 1.00000