# CIF file 
data_findsym-output
_audit_creation_method FINDSYM

_chemical_name_mineral 'KO3S'
_chemical_formula_sum 'K O3 S'

loop_
_publ_author_name
 'M. L. Huggins'
 'G. O. Frank'
_journal_name_full_name
;
 American Mineralogist
;
_journal_volume 16
_journal_year 1931
_journal_page_first 580
_journal_page_last 591
_publ_Section_title
;
 The crystal structure of potassium dithionate, K$_{2}$S$_{2}$O$_{6}$
;

# Found in Strukturbericht Band II 1928-1932, 1937

_aflow_title 'KSO$_{3}$ ($K1_{1}$) Structure'
_aflow_proto 'AB3C_hP30_150_ef_3g_c2d'
_aflow_params 'a,c/a,z_{1},z_{2},z_{3},x_{4},x_{5},x_{6},y_{6},z_{6},x_{7},y_{7},z_{7},x_{8},y_{8},z_{8}'
_aflow_params_values '9.82,0.647657841141,0.16,0.59,0.27,0.3,0.62,0.16,0.11,0.23,0.61,0.17,0.34,0.5,0.21,0.8'
_aflow_Strukturbericht '$K1_{1}$'
_aflow_Pearson 'hP30'

_symmetry_space_group_name_H-M "P 3 2 1"
_symmetry_Int_Tables_number 150
 
_cell_length_a    9.82000
_cell_length_b    9.82000
_cell_length_c    6.36000
_cell_angle_alpha 90.00000
_cell_angle_beta  90.00000
_cell_angle_gamma 120.00000
 
loop_
_space_group_symop_id
_space_group_symop_operation_xyz
1 x,y,z
2 -y,x-y,z
3 -x+y,-x,z
4 x-y,-y,-z
5 y,x,-z
6 -x,-x+y,-z
 
loop_
_atom_site_label
_atom_site_type_symbol
_atom_site_symmetry_multiplicity
_atom_site_Wyckoff_label
_atom_site_fract_x
_atom_site_fract_y
_atom_site_fract_z
_atom_site_occupancy
S1 S 2 c 0.00000 0.00000 0.16000 1.00000
S2 S 2 d 0.33333 0.66667 0.59000 1.00000
S3 S 2 d 0.33333 0.66667 0.27000 1.00000
K1 K 3 e 0.30000 0.00000 0.00000 1.00000
K2 K 3 f 0.62000 0.00000 0.50000 1.00000
O1 O 6 g 0.16000 0.11000 0.23000 1.00000
O2 O 6 g 0.61000 0.17000 0.34000 1.00000
O3 O 6 g 0.50000 0.21000 0.80000 1.00000