# CIF file 
data_findsym-output
_audit_creation_method FINDSYM

_chemical_name_mineral 'CdCl3(NH4)'
_chemical_formula_sum 'Cd Cl3 (NH4)'

loop_
_publ_author_name
 'H. Brasseur'
 'L. Pauling'
_journal_name_full_name
;
 Journal of the American Chemical Society
;
_journal_volume 60
_journal_year 1938
_journal_page_first 2886
_journal_page_last 2890
_publ_Section_title
;
 The Crystal Structure of Ammonium Cadmium Chloride, NH$_{4}$CdCl$_{3}$
;

_aflow_title 'NH$_{4}$CdCl$_{3}$ ($E2_{4}$) Structure'
_aflow_proto 'AB3C_oP20_62_c_3c_c'
_aflow_params 'a,b/a,c/a,x_{1},z_{1},x_{2},z_{2},x_{3},z_{3},x_{4},z_{4},x_{5},z_{5}'
_aflow_params_values '8.96,0.443080357143,1.65959821429,0.665,-0.054,0.784,0.785,0.667,0.504,0.526,0.102,-0.07,0.18'
_aflow_Strukturbericht '$E2_{4}$'
_aflow_Pearson 'oP20'

_symmetry_space_group_name_H-M "P 21/n 21/m 21/a"
_symmetry_Int_Tables_number 62
 
_cell_length_a    8.96000
_cell_length_b    3.97000
_cell_length_c    14.87000
_cell_angle_alpha 90.00000
_cell_angle_beta  90.00000
_cell_angle_gamma 90.00000
 
loop_
_space_group_symop_id
_space_group_symop_operation_xyz
1 x,y,z
2 x+1/2,-y+1/2,-z+1/2
3 -x,y+1/2,-z
4 -x+1/2,-y,z+1/2
5 -x,-y,-z
6 -x+1/2,y+1/2,z+1/2
7 x,-y+1/2,z
8 x+1/2,y,-z+1/2
 
loop_
_atom_site_label
_atom_site_type_symbol
_atom_site_symmetry_multiplicity
_atom_site_Wyckoff_label
_atom_site_fract_x
_atom_site_fract_y
_atom_site_fract_z
_atom_site_occupancy
Cd1 Cd 4 c 0.66500 0.25000 -0.05400 1.00000
Cl1 Cl 4 c 0.78400 0.25000 0.78500 1.00000
Cl2 Cl 4 c 0.66700 0.25000 0.50400 1.00000
Cl3 Cl 4 c 0.52600 0.25000 0.10200 1.00000
NH41 NH4 4 c -0.07000 0.25000 0.18000 1.00000