# CIF file 
data_findsym-output
_audit_creation_method FINDSYM

_chemical_name_mineral 'Cronstedtite'
_chemical_formula_sum 'Fe O3 (OH)2 Si'

loop_
_publ_author_name
 'S. B. Hendricks'
_journal_name_full_name
;
 American Mineralogist
;
_journal_volume 24
_journal_year 1939
_journal_page_first 529
_journal_page_last 539
_publ_Section_title
;
 Random structures of layer minerals as illustrated by cronstedite (2FeO$\cdot$Fe$_{2}$O$_{3}$$\cdot$SiO$_{2}$$\cdot$2H$_{2}$O). Possible iron content of kaolin
;

# Found in Strukturbericht Band VII 1939, 1943

_aflow_title 'Cronstedtite \{Fe(Fe,Si)[(OH)$_{2}$O]O$_{3}$OH, $S5_{7}$\} Structure'
_aflow_proto 'AB3C2D_hR7_160_a_b_2a_a'
_aflow_params 'a,c/a,x_{1},x_{2},x_{3},x_{4},x_{5},z_{5}'
_aflow_params_values '5.48,3.87773722628,0.03,0.11,0.54,0.83,0.5,0.0'
_aflow_Strukturbericht '$S5_{7}$'
_aflow_Pearson 'hR7'

_symmetry_space_group_name_H-M "R 3 m (hexagonal axes)"
_symmetry_Int_Tables_number 160
 
_cell_length_a    5.48000
_cell_length_b    5.48000
_cell_length_c    21.25000
_cell_angle_alpha 90.00000
_cell_angle_beta  90.00000
_cell_angle_gamma 120.00000
 
loop_
_space_group_symop_id
_space_group_symop_operation_xyz
1 x,y,z
2 -y,x-y,z
3 -x+y,-x,z
4 -y,-x,z
5 x,x-y,z
6 -x+y,y,z
7 x+1/3,y+2/3,z+2/3
8 -y+1/3,x-y+2/3,z+2/3
9 -x+y+1/3,-x+2/3,z+2/3
10 -y+1/3,-x+2/3,z+2/3
11 x+1/3,x-y+2/3,z+2/3
12 -x+y+1/3,y+2/3,z+2/3
13 x+2/3,y+1/3,z+1/3
14 -y+2/3,x-y+1/3,z+1/3
15 -x+y+2/3,-x+1/3,z+1/3
16 -y+2/3,-x+1/3,z+1/3
17 x+2/3,x-y+1/3,z+1/3
18 -x+y+2/3,y+1/3,z+1/3
 
loop_
_atom_site_label
_atom_site_type_symbol
_atom_site_symmetry_multiplicity
_atom_site_Wyckoff_label
_atom_site_fract_x
_atom_site_fract_y
_atom_site_fract_z
_atom_site_occupancy
Fe1 Fe 3 a 0.00000 0.00000 0.03000 0.90000
OH1 OH 3 a 0.00000 0.00000 0.11000 1.00000
OH2 OH 3 a 0.00000 0.00000 0.54000 1.00000
Si1 Si 3 a 0.00000 0.00000 0.83000 1.00000
O1 O 9 b 0.50000 0.50000 0.00000 1.00000