# CIF file 
data_findsym-output
_audit_creation_method FINDSYM

_chemical_name_mineral 'CsO3S'
_chemical_formula_sum 'Cs O3 S'

loop_
_publ_author_name
 'G. H\"{a}gg'
_journal_name_full_name
;
 Zeitschrift f{\"u}r Physikalische Chemie B
;
_journal_volume 18
_journal_year 1932
_journal_page_first 327
_journal_page_last 342
_publ_Section_title
;
 Die Kristallstruktur von Caesiumdithionat, Cs$_{2}$S$_{2}$O$_{6}$
;

# Found in The American Mineralogist Crystal Structure Database, 2003

_aflow_title 'CsSO$_{3}$ ($K1_{2}$) Structure'
_aflow_proto 'AB3C_hP20_190_ac_i_f'
_aflow_params 'a,c/a,z_{3},x_{4},y_{4},z_{4}'
_aflow_params_values '6.326,1.82342712615,0.66,0.44,0.33333,0.125'
_aflow_Strukturbericht '$K1_{2}$'
_aflow_Pearson 'hP20'

_symmetry_space_group_name_H-M "P -6 2 c"
_symmetry_Int_Tables_number 190
 
_cell_length_a    6.32600
_cell_length_b    6.32600
_cell_length_c    11.53500
_cell_angle_alpha 90.00000
_cell_angle_beta  90.00000
_cell_angle_gamma 120.00000
 
loop_
_space_group_symop_id
_space_group_symop_operation_xyz
1 x,y,z
2 -y,x-y,z
3 -x+y,-x,z
4 x-y,-y,-z
5 y,x,-z
6 -x,-x+y,-z
7 -x+y,-x,-z+1/2
8 x,y,-z+1/2
9 -y,x-y,-z+1/2
10 -x,-x+y,z+1/2
11 x-y,-y,z+1/2
12 y,x,z+1/2
 
loop_
_atom_site_label
_atom_site_type_symbol
_atom_site_symmetry_multiplicity
_atom_site_Wyckoff_label
_atom_site_fract_x
_atom_site_fract_y
_atom_site_fract_z
_atom_site_occupancy
Cs1 Cs 2 a 0.00000 0.00000 0.00000 1.00000
Cs2 Cs 2 c 0.33333 0.66667 0.25000 1.00000
S1 S 4 f 0.33333 0.66667 0.66000 1.00000
O1 O 12 i 0.44000 0.33333 0.12500 1.00000