# CIF file 
data_findsym-output
_audit_creation_method FINDSYM

_chemical_name_mineral 'AuBr4K'
_chemical_formula_sum 'Au Br4 K'

loop_
_publ_author_name
 'H. Omrani'
 'R. Welter'
 'R. Vangelisti'
_journal_name_full_name
;
 Acta Crystallographica Section C: Structural Chemistry
;
_journal_volume 55
_journal_year 1999
_journal_page_first 13
_journal_page_last 14
_publ_Section_title
;
 Potassium tetrabromoaurate(III)
;

# Found in Sodium tetrabromoaurate(III) dihydrate, 2001

_aflow_title 'Anhydrous KAuBr$_{4}$ Structure'
_aflow_proto 'AB4C_mP24_14_ab_4e_e'
_aflow_params 'a,b/a,c/a,\beta,x_{3},y_{3},z_{3},x_{4},y_{4},z_{4},x_{5},y_{5},z_{5},x_{6},y_{6},z_{6},x_{7},y_{7},z_{7}'
_aflow_params_values '9.0306,0.736208003898,1.41740305185,96.88,0.86659,0.2934,0.04766,0.09492,-0.0538,0.18234,0.5056,0.1517,0.1707,0.6635,0.7336,0.07207,0.2128,0.4492,0.1813'
_aflow_Strukturbericht 'None'
_aflow_Pearson 'mP24'

_symmetry_space_group_name_H-M "P 1 21/c 1"
_symmetry_Int_Tables_number 14
 
_cell_length_a    9.03060
_cell_length_b    6.64840
_cell_length_c    12.80000
_cell_angle_alpha 90.00000
_cell_angle_beta  96.88000
_cell_angle_gamma 90.00000
 
loop_
_space_group_symop_id
_space_group_symop_operation_xyz
1 x,y,z
2 -x,y+1/2,-z+1/2
3 -x,-y,-z
4 x,-y+1/2,z+1/2
 
loop_
_atom_site_label
_atom_site_type_symbol
_atom_site_symmetry_multiplicity
_atom_site_Wyckoff_label
_atom_site_fract_x
_atom_site_fract_y
_atom_site_fract_z
_atom_site_occupancy
Au1 Au 2 a 0.00000 0.00000 0.00000 1.00000
Au2 Au 2 b 0.50000 0.00000 0.00000 1.00000
Br1 Br 4 e 0.86659 0.29340 0.04766 1.00000
Br2 Br 4 e 0.09492 -0.05380 0.18234 1.00000
Br3 Br 4 e 0.50560 0.15170 0.17070 1.00000
Br4 Br 4 e 0.66350 0.73360 0.07207 1.00000
K1 K 4 e 0.21280 0.44920 0.18130 1.00000