# CIF file 
data_findsym-output
_audit_creation_method FINDSYM

_chemical_name_mineral 'GaMo4S8'
_chemical_formula_sum 'Ga Mo4 Si8'

loop_
_publ_author_name
 'M. Fran\c{c}ois'
 'W. Lengauer'
 'K. Yvon'
 'M. Sergent'
 'M. Potel'
 'P. Gougeon'
 'H. {Ben Yaich-Aerrache}'
_journal_name_full_name
;
 Zeitschrift f{\"u}r Kristallographie - Crystalline Materials
;
_journal_volume 196
_journal_year 1991
_journal_page_first 111
_journal_page_last 128
_publ_Section_title
;
 Structural phase transition in GaMo$_{4}$S$_{8}$ by X-ray powder diffraction
;

_aflow_title 'Low-Temperature GaMo$_{4}$S$_{8}$ Structure'
_aflow_proto 'AB4C8_hR13_160_a_ab_2a2b'
_aflow_params 'a,c/a,x_{1},x_{2},x_{3},x_{4},x_{5},z_{5},x_{6},z_{6},x_{7},z_{7}'
_aflow_params_values '6.90572,2.42010391386,0.0,0.399,0.636,0.135,0.396,0.814,0.642,0.088,1.138,-0.40801'
_aflow_Strukturbericht 'None'
_aflow_Pearson 'hR13'

_symmetry_space_group_name_H-M "R 3 m (hexagonal axes)"
_symmetry_Int_Tables_number 160
 
_cell_length_a    6.90572
_cell_length_b    6.90572
_cell_length_c    16.71256
_cell_angle_alpha 90.00000
_cell_angle_beta  90.00000
_cell_angle_gamma 120.00000
 
loop_
_space_group_symop_id
_space_group_symop_operation_xyz
1 x,y,z
2 -y,x-y,z
3 -x+y,-x,z
4 -y,-x,z
5 x,x-y,z
6 -x+y,y,z
7 x+1/3,y+2/3,z+2/3
8 -y+1/3,x-y+2/3,z+2/3
9 -x+y+1/3,-x+2/3,z+2/3
10 -y+1/3,-x+2/3,z+2/3
11 x+1/3,x-y+2/3,z+2/3
12 -x+y+1/3,y+2/3,z+2/3
13 x+2/3,y+1/3,z+1/3
14 -y+2/3,x-y+1/3,z+1/3
15 -x+y+2/3,-x+1/3,z+1/3
16 -y+2/3,-x+1/3,z+1/3
17 x+2/3,x-y+1/3,z+1/3
18 -x+y+2/3,y+1/3,z+1/3
 
loop_
_atom_site_label
_atom_site_type_symbol
_atom_site_symmetry_multiplicity
_atom_site_Wyckoff_label
_atom_site_fract_x
_atom_site_fract_y
_atom_site_fract_z
_atom_site_occupancy
Ga1 Ga 3 a 0.00000 0.00000 0.00000 1.00000
Mo1 Mo 3 a 0.00000 0.00000 0.39900 1.00000
Si1 Si 3 a 0.00000 0.00000 0.63600 1.00000
Si2 Si 3 a 0.00000 0.00000 0.13500 1.00000
Mo2 Mo 9 b 0.19400 0.80600 0.20200 1.00000
Si3 Si 9 b 0.51800 0.48200 0.12400 1.00000
Si4 Si 9 b 0.84867 0.15133 0.28933 1.00000