# CIF file 
data_findsym-output
_audit_creation_method FINDSYM

_chemical_name_mineral 'Monazite'
_chemical_formula_sum 'La O4 P'

loop_
_publ_author_name
 'Y. Ni'
 'J. M. Hughes'
 'A. N. Mariano'
_journal_name_full_name
;
 American Mineralogist
;
_journal_volume 80
_journal_year 1995
_journal_page_first 21
_journal_page_last 26
_publ_Section_title
;
 Crystal chemistry of the monazite and xenotime structures
;

# Found in Gasparite-(La), La(AsO$_{4}$), a new mineral from Mn ores of the Ushkatyn-III deposit, Central Kazakhstan, and metamorphic rocks of the Wanni glacier, Switzerland, 2019

_aflow_title 'Monazite (LaPO$_{4}$) Structure'
_aflow_proto 'AB4C_mP24_14_e_4e_e'
_aflow_params 'a,b/a,c/a,\beta,x_{1},y_{1},z_{1},x_{2},y_{2},z_{2},x_{3},y_{3},z_{3},x_{4},y_{4},z_{4},x_{5},y_{5},z_{5},x_{6},y_{6},z_{6}'
_aflow_params_values '6.5034,1.08720054126,1.27324630193,126.58575,0.18086,0.16033,0.28154,0.8026,0.0077,0.2503,0.8835,0.3315,0.3799,0.673,0.1071,0.4748,0.4176,0.2168,0.1277,0.6926,0.1639,0.3047'
_aflow_Strukturbericht 'None'
_aflow_Pearson 'mP24'

_symmetry_space_group_name_H-M "P 1 21/c 1"
_symmetry_Int_Tables_number 14
 
_cell_length_a    6.50340
_cell_length_b    7.07050
_cell_length_c    8.28043
_cell_angle_alpha 90.00000
_cell_angle_beta  126.58575
_cell_angle_gamma 90.00000
 
loop_
_space_group_symop_id
_space_group_symop_operation_xyz
1 x,y,z
2 -x,y+1/2,-z+1/2
3 -x,-y,-z
4 x,-y+1/2,z+1/2
 
loop_
_atom_site_label
_atom_site_type_symbol
_atom_site_symmetry_multiplicity
_atom_site_Wyckoff_label
_atom_site_fract_x
_atom_site_fract_y
_atom_site_fract_z
_atom_site_occupancy
La1 La 4 e 0.18086 0.16033 0.28154 1.00000
O1 O 4 e 0.80260 0.00770 0.25030 1.00000
O2 O 4 e 0.88350 0.33150 0.37990 1.00000
O3 O 4 e 0.67300 0.10710 0.47480 1.00000
O4 O 4 e 0.41760 0.21680 0.12770 1.00000
P1 P 4 e 0.69260 0.16390 0.30470 1.00000
