# CIF file 
data_findsym-output
_audit_creation_method FINDSYM

_chemical_name_mineral 'AlCl4Na'
_chemical_formula_sum 'Al Cl4 Na'

loop_
_publ_author_name
 'G. Mairesse'
 'P. Barbier'
 'J.-P. Wignacourt'
_journal_name_full_name
;
 Acta Crystallographica Section B: Structural Science
;
_journal_volume 35
_journal_year 1979
_journal_page_first 1573
_journal_page_last 1580
_publ_Section_title
;
 Comparison of the crystal structures of alkaline ($M$ = Li, Na, K, Rb, Cs) and pseudo-alkaline ($M$ = NO,NH$_{4}$) tetrachloroaluminates, $M$AlCl$_{4}$
;

# Found in The American Mineralogist Crystal Structure Database, 2003

_aflow_title 'NaAlCl$_{4}$ Structure'
_aflow_proto 'AB4C_oP24_19_a_4a_a'
_aflow_params 'a,b/a,c/a,x_{1},y_{1},z_{1},x_{2},y_{2},z_{2},x_{3},y_{3},z_{3},x_{4},y_{4},z_{4},x_{5},y_{5},z_{5},x_{6},y_{6},z_{6}'
_aflow_params_values '9.886,0.623811450536,1.0441027716,0.51429,0.20707,-0.03774,0.6855,0.10957,0.85152,0.33503,0.07337,0.87726,0.52257,0.07458,0.15367,0.50874,0.55281,-0.03214,0.71343,0.31122,0.37466'
_aflow_Strukturbericht 'None'
_aflow_Pearson 'oP24'

_symmetry_space_group_name_H-M "P 21 21 21"
_symmetry_Int_Tables_number 19
 
_cell_length_a    9.88600
_cell_length_b    6.16700
_cell_length_c    10.32200
_cell_angle_alpha 90.00000
_cell_angle_beta  90.00000
_cell_angle_gamma 90.00000
 
loop_
_space_group_symop_id
_space_group_symop_operation_xyz
1 x,y,z
2 x+1/2,-y+1/2,-z
3 -x,y+1/2,-z+1/2
4 -x+1/2,-y,z+1/2
 
loop_
_atom_site_label
_atom_site_type_symbol
_atom_site_symmetry_multiplicity
_atom_site_Wyckoff_label
_atom_site_fract_x
_atom_site_fract_y
_atom_site_fract_z
_atom_site_occupancy
Al1 Al 4 a 0.51429 0.20707 -0.03774 1.00000
Cl1 Cl 4 a 0.68550 0.10957 0.85152 1.00000
Cl2 Cl 4 a 0.33503 0.07337 0.87726 1.00000
Cl3 Cl 4 a 0.52257 0.07458 0.15367 1.00000
Cl4 Cl 4 a 0.50874 0.55281 -0.03214 1.00000
Na1 Na 4 a 0.71343 0.31122 0.37466 1.00000