# CIF file 
data_findsym-output
_audit_creation_method FINDSYM

_chemical_name_mineral 'Huanzalaite'
_chemical_formula_sum 'Mg O4 W'

loop_
_publ_author_name
 'V. B. Kravchenko'
_journal_name_full_name
;
 Journal of Structural Chemistry
;
_journal_volume 10
_journal_year 1969
_journal_page_first 139
_journal_page_last 140
_publ_Section_title
;
 Crystal structure of the monoclinic form of magnesium tungstate MgWO$_{4}$
;

_aflow_title 'Huanzalaite (MgWO$_{4}$, $H0_{6}$) Structure'
_aflow_proto 'AB4C_mP12_13_f_2g_e'
_aflow_params 'a,b/a,c/a,\beta,y_{1},y_{2},x_{3},y_{3},z_{3},x_{4},y_{4},z_{4}'
_aflow_params_values '4.68,1.2094017094,1.05128205128,90.33333,0.1818,0.6592,0.221,0.101,-0.07,0.266,0.384,0.391'
_aflow_Strukturbericht '$H0_{6}$'
_aflow_Pearson 'mP12'

_symmetry_space_group_name_H-M "P 1 2/c 1"
_symmetry_Int_Tables_number 13
 
_cell_length_a    4.68000
_cell_length_b    5.66000
_cell_length_c    4.92000
_cell_angle_alpha 90.00000
_cell_angle_beta  90.33333
_cell_angle_gamma 90.00000
 
loop_
_space_group_symop_id
_space_group_symop_operation_xyz
1 x,y,z
2 -x,y,-z+1/2
3 -x,-y,-z
4 x,-y,z+1/2
 
loop_
_atom_site_label
_atom_site_type_symbol
_atom_site_symmetry_multiplicity
_atom_site_Wyckoff_label
_atom_site_fract_x
_atom_site_fract_y
_atom_site_fract_z
_atom_site_occupancy
W1 W 2 e 0.00000 0.18180 0.25000 1.00000
Mg1 Mg 2 f 0.50000 0.65920 0.25000 1.00000
O1 O 4 g 0.22100 0.10100 -0.07000 1.00000
O2 O 4 g 0.26600 0.38400 0.39100 1.00000