# CIF file 
data_findsym-output
_audit_creation_method FINDSYM

_chemical_name_mineral 'Gypsum'
_chemical_formula_sum 'Ca H4 O6 S'

loop_
_publ_author_name
 'P. Comodi'
 'S. Nazzareni'
 'P. F. Zanazzi'
 'S. Speziale'
_journal_name_full_name
;
 American Mineralogist
;
_journal_volume 93
_journal_year 2008
_journal_page_first 1530
_journal_page_last 1537
_publ_Section_title
;
 High-pressure behavior of gypsum: A single-crystal X-ray study
;

# Found in The American Mineralogist Crystal Structure Database, 2003

_aflow_title 'Gypsum (CaSO$_{4}$$\cdot$2H$_{2}$O, $H4_{6}$) Structure'
_aflow_proto 'AB4C6D_mC48_15_e_2f_3f_e'
_aflow_params 'a,b/a,c/a,\beta,y_{1},y_{2},x_{3},y_{3},z_{3},x_{4},y_{4},z_{4},x_{5},y_{5},z_{5},x_{6},y_{6},z_{6},x_{7},y_{7},z_{7}'
_aflow_params_values '6.277,2.41851202804,0.90361637725,114.11,0.1705,0.67273,0.742,0.087,0.766,0.756,0.02,-0.077,0.08319,0.27218,0.59103,0.19997,0.38195,-0.08702,0.79177,0.06826,-0.07831'
_aflow_Strukturbericht '$H4_{6}$'
_aflow_Pearson 'mC48'

_symmetry_space_group_name_H-M "C 1 2/c 1"
_symmetry_Int_Tables_number 15
 
_cell_length_a    6.27700
_cell_length_b    15.18100
_cell_length_c    5.67200
_cell_angle_alpha 90.00000
_cell_angle_beta  114.11000
_cell_angle_gamma 90.00000
 
loop_
_space_group_symop_id
_space_group_symop_operation_xyz
1 x,y,z
2 -x,y,-z+1/2
3 -x,-y,-z
4 x,-y,z+1/2
5 x+1/2,y+1/2,z
6 -x+1/2,y+1/2,-z+1/2
7 -x+1/2,-y+1/2,-z
8 x+1/2,-y+1/2,z+1/2
 
loop_
_atom_site_label
_atom_site_type_symbol
_atom_site_symmetry_multiplicity
_atom_site_Wyckoff_label
_atom_site_fract_x
_atom_site_fract_y
_atom_site_fract_z
_atom_site_occupancy
Ca1 Ca 4 e 0.00000 0.17050 0.25000 1.00000
S1 S 4 e 0.00000 0.67273 0.25000 1.00000
H1 H 8 f 0.74200 0.08700 0.76600 1.00000
H2 H 8 f 0.75600 0.02000 -0.07700 1.00000
O1 O 8 f 0.08319 0.27218 0.59103 1.00000
O2 O 8 f 0.19997 0.38195 -0.08702 1.00000
O3 O 8 f 0.79177 0.06826 -0.07831 1.00000