# CIF file 
data_findsym-output
_audit_creation_method FINDSYM

_chemical_name_mineral 'BaC4(H2O)4N4Ni'
_chemical_formula_sum 'Ba C4 (H2O)4 N4 Ni'

loop_
_publ_author_name
 'F. K. Larsen'
 'R. G. Hazell'
 'S. E. Rasmussen'
_journal_name_full_name
;
 Acta Chemica Scandinavica
;
_journal_volume 23
_journal_year 1969
_journal_page_first 61
_journal_page_last 69
_publ_Section_title
;
 The Crystal Structure of Barium Tetracyanonickelate(II) Tetrahydrate
;

_aflow_title 'BaNi(CN)$_{4}$$\cdot$4H$_{2}$O ($H4_{22}$) Structure'
_aflow_proto 'AB4C4D4E_mC56_15_e_2f_2f_2f_a'
_aflow_params 'a,b/a,c/a,\beta,y_{2},x_{3},y_{3},z_{3},x_{4},y_{4},z_{4},x_{5},y_{5},z_{5},x_{6},y_{6},z_{6},x_{7},y_{7},z_{7},x_{8},y_{8},z_{8}'
_aflow_params_values '12.07,1.12758906379,0.556752278376,107.54,0.37049,0.0641,0.125,0.0557,0.6475,0.4437,0.0905,0.3588,0.1896,0.3431,0.4018,0.0551,0.0562,0.0997,0.2032,0.0914,0.7393,0.4076,0.1439'
_aflow_Strukturbericht '$H4_{22}$'
_aflow_Pearson 'mC56'

_symmetry_space_group_name_H-M "C 1 2/c 1"
_symmetry_Int_Tables_number 15
 
_cell_length_a    12.07000
_cell_length_b    13.61000
_cell_length_c    6.72000
_cell_angle_alpha 90.00000
_cell_angle_beta  107.54000
_cell_angle_gamma 90.00000
 
loop_
_space_group_symop_id
_space_group_symop_operation_xyz
1 x,y,z
2 -x,y,-z+1/2
3 -x,-y,-z
4 x,-y,z+1/2
5 x+1/2,y+1/2,z
6 -x+1/2,y+1/2,-z+1/2
7 -x+1/2,-y+1/2,-z
8 x+1/2,-y+1/2,z+1/2
 
loop_
_atom_site_label
_atom_site_type_symbol
_atom_site_symmetry_multiplicity
_atom_site_Wyckoff_label
_atom_site_fract_x
_atom_site_fract_y
_atom_site_fract_z
_atom_site_occupancy
Ni1 Ni 4 a 0.00000 0.00000 0.00000 1.00000
Ba1 Ba 4 e 0.00000 0.37049 0.25000 1.00000
C1 C 8 f 0.06410 0.12500 0.05570 1.00000
C2 C 8 f 0.64750 0.44370 0.09050 1.00000
H2O1 H2O 8 f 0.35880 0.18960 0.34310 1.00000
H2O2 H2O 8 f 0.40180 0.05510 0.05620 1.00000
N1 N 8 f 0.09970 0.20320 0.09140 1.00000
N2 N 8 f 0.73930 0.40760 0.14390 1.00000