# CIF file 
data_findsym-output
_audit_creation_method FINDSYM

_chemical_name_mineral 'NiS5Ta2'
_chemical_formula_sum 'Ni S5 Ta2'

loop_
_publ_author_name
 'S. A. Sunshine'
 'J. A. Ibers'
_journal_name_full_name
;
 Inorganic Chemistry
;
_journal_volume 24
_journal_year 1985
_journal_page_first 3611
_journal_page_last 3614
_publ_Section_title
;
 Structure and physical properties of the new layered ternary chalcogenides tantalum nickel sulfide (Ta$_{2}$NiS$_{5}$) and tantalum nickel selenide (Ta$_{2}$NiSe$_{5}$)
;

# Found in Physical and structural properties of the new layered compounds Ta$_{2}$NiS$_{5}$ and Ta$_{2}$NiSe$_{5}$, 1986

_aflow_title 'Ta$_{2}$NiS$_{5}$ Structure'
_aflow_proto 'AB5C2_oC32_63_c_c2f_f'
_aflow_params 'a,b/a,c/a,y_{1},y_{2},y_{3},z_{3},y_{4},z_{4},y_{5},z_{5}'
_aflow_params_values '3.415,3.55666471449,4.42079062958,0.69692,0.31968,0.58282,0.13527,0.1485,-0.05026,0.22082,0.10879'
_aflow_Strukturbericht 'None'
_aflow_Pearson 'oC32'

_symmetry_space_group_name_H-M "C 2/m 2/c 21/m"
_symmetry_Int_Tables_number 63
 
_cell_length_a    3.41500
_cell_length_b    12.14601
_cell_length_c    15.09700
_cell_angle_alpha 90.00000
_cell_angle_beta  90.00000
_cell_angle_gamma 90.00000
 
loop_
_space_group_symop_id
_space_group_symop_operation_xyz
1 x,y,z
2 x,-y,-z
3 -x,y,-z+1/2
4 -x,-y,z+1/2
5 -x,-y,-z
6 -x,y,z
7 x,-y,z+1/2
8 x,y,-z+1/2
9 x+1/2,y+1/2,z
10 x+1/2,-y+1/2,-z
11 -x+1/2,y+1/2,-z+1/2
12 -x+1/2,-y+1/2,z+1/2
13 -x+1/2,-y+1/2,-z
14 -x+1/2,y+1/2,z
15 x+1/2,-y+1/2,z+1/2
16 x+1/2,y+1/2,-z+1/2
 
loop_
_atom_site_label
_atom_site_type_symbol
_atom_site_symmetry_multiplicity
_atom_site_Wyckoff_label
_atom_site_fract_x
_atom_site_fract_y
_atom_site_fract_z
_atom_site_occupancy
Ni1 Ni 4 c 0.00000 0.69692 0.25000 1.00000
S1 S 4 c 0.00000 0.31968 0.25000 1.00000
S2 S 8 f 0.00000 0.58282 0.13527 1.00000
S3 S 8 f 0.00000 0.14850 -0.05026 1.00000
Ta1 Ta 8 f 0.00000 0.22082 0.10879 1.00000