# CIF file 
data_findsym-output
_audit_creation_method FINDSYM

_chemical_name_mineral 'MnU6'
_chemical_formula_sum 'Mn U6'

loop_
_publ_author_name
 'N. C. Baenziger'
 'R. E. Rundle'
 'A. I. Snow'
 'A. S. Wilson'
_journal_name_full_name
;
 Acta Cristallographica
;
_journal_volume 3
_journal_year 1950
_journal_page_first 34
_journal_page_last 40
_publ_Section_title
;
 Compounds of uranium with the transition metals of the first long period
;

# Found in PAULING FILE, {in: Inorganic Solid Phases, SpringerMaterials (online database), Springer, Heidelberg}, 2016

_aflow_title 'U$_{6}$Mn ($D2_{c}$) Structure'
_aflow_proto 'AB6_tI28_140_a_hk'
_aflow_params 'a,c/a,x_{2},x_{3},y_{3}'
_aflow_params_values '10.29,0.509232264334,0.4068,0.2141,0.1021'
_aflow_Strukturbericht '$D2_{c}$'
_aflow_Pearson 'tI28'

_symmetry_space_group_name_H-M "I 4/m 2/c 2/m"
_symmetry_Int_Tables_number 140
 
_cell_length_a    10.29000
_cell_length_b    10.29000
_cell_length_c    5.24000
_cell_angle_alpha 90.00000
_cell_angle_beta  90.00000
_cell_angle_gamma 90.00000
 
loop_
_space_group_symop_id
_space_group_symop_operation_xyz
1 x,y,z
2 x,-y,-z+1/2
3 -x,y,-z+1/2
4 -x,-y,z
5 -y,-x,-z+1/2
6 -y,x,z
7 y,-x,z
8 y,x,-z+1/2
9 -x,-y,-z
10 -x,y,z+1/2
11 x,-y,z+1/2
12 x,y,-z
13 y,x,z+1/2
14 y,-x,-z
15 -y,x,-z
16 -y,-x,z+1/2
17 x+1/2,y+1/2,z+1/2
18 x+1/2,-y+1/2,-z
19 -x+1/2,y+1/2,-z
20 -x+1/2,-y+1/2,z+1/2
21 -y+1/2,-x+1/2,-z
22 -y+1/2,x+1/2,z+1/2
23 y+1/2,-x+1/2,z+1/2
24 y+1/2,x+1/2,-z
25 -x+1/2,-y+1/2,-z+1/2
26 -x+1/2,y+1/2,z
27 x+1/2,-y+1/2,z
28 x+1/2,y+1/2,-z+1/2
29 y+1/2,x+1/2,z
30 y+1/2,-x+1/2,-z+1/2
31 -y+1/2,x+1/2,-z+1/2
32 -y+1/2,-x+1/2,z
 
loop_
_atom_site_label
_atom_site_type_symbol
_atom_site_symmetry_multiplicity
_atom_site_Wyckoff_label
_atom_site_fract_x
_atom_site_fract_y
_atom_site_fract_z
_atom_site_occupancy
Mn1 Mn 4 a 0.00000 0.00000 0.25000 1.00000
U1 U 8 h 0.40680 -0.09320 0.00000 1.00000
U2 U 16 k 0.21410 0.10210 0.00000 1.00000
