# CIF file 
data_findsym-output
_audit_creation_method FINDSYM

_chemical_name_mineral 'PdSe6Ta2'
_chemical_formula_sum 'Pd Se6 Ta2'

loop_
_publ_author_name
 'D. A. Keszler'
 'P. J. Squattrito'
 'N. E. Brese'
 'J. A. Ibers'
 'M. Shang'
 'J. Lu'
_journal_year 1985
_publ_Section_title
;
 New layered ternary chalcogenides: tantalum palladium sulfide (Ta$_{2}$PdS$_{6}$), tantalum palladium selenide (Ta$_{2}$PdSe$_{6}$), niobium palladium sulfide (Nb$_{2}$PdS$_{6}$), niobium palladium selenide (Nb$_{2}$PdSe$_{6}$)
;

_aflow_title 'Ta$_{2}$PdSe$_{6}$ Structure'
_aflow_proto 'AB6C2_mC18_12_a_3i_i'
_aflow_params 'a,b/a,c/a,\beta,x_{2},z_{2},x_{3},z_{3},x_{4},z_{4},x_{5},z_{5}'
_aflow_params_values '12.46083,0.270848731585,0.836461134611,116.31902,-0.00589,0.76131,0.65848,0.53954,0.21851,0.12521,0.67999,0.28976'
_aflow_Strukturbericht 'None'
_aflow_Pearson 'mC18'

_symmetry_space_group_name_H-M "C 1 2/m 1"
_symmetry_Int_Tables_number 12
 
_cell_length_a    12.46083
_cell_length_b    3.37500
_cell_length_c    10.42300
_cell_angle_alpha 90.00000
_cell_angle_beta  116.31902
_cell_angle_gamma 90.00000
 
loop_
_space_group_symop_id
_space_group_symop_operation_xyz
1 x,y,z
2 -x,y,-z
3 -x,-y,-z
4 x,-y,z
5 x+1/2,y+1/2,z
6 -x+1/2,y+1/2,-z
7 -x+1/2,-y+1/2,-z
8 x+1/2,-y+1/2,z
 
loop_
_atom_site_label
_atom_site_type_symbol
_atom_site_symmetry_multiplicity
_atom_site_Wyckoff_label
_atom_site_fract_x
_atom_site_fract_y
_atom_site_fract_z
_atom_site_occupancy
Pd1 Pd 2 a 0.00000 0.00000 0.00000 1.00000
Se1 Se 4 i -0.00589 0.00000 0.76131 1.00000
Se2 Se 4 i 0.65848 0.00000 0.53954 1.00000
Se3 Se 4 i 0.21851 0.00000 0.12521 1.00000
Ta1 Ta 4 i 0.67999 0.00000 0.28976 1.00000