# CIF file 
data_findsym-output
_audit_creation_method FINDSYM

_chemical_name_mineral 'ClH6LiO7'
_chemical_formula_sum 'Cl H6 Li O7'

loop_
_publ_author_name
 'J.-O. Lundgren'
 'R. Liminga'
 'R. Tellgren'
_journal_name_full_name
;
 Acta Crystallographica Section B: Structural Science
;
_journal_volume 38
_journal_year 1982
_journal_page_first 15
_journal_page_last 20
_publ_Section_title
;
 Neutron diffraction refinement of pyroelectric lithium perchlorate trihydrate
;

# Found in The OH stretching frequency in LiClO$_{4}$$\cdot$3H$_{2}$O(s) from ab initio and model potential calculations, 1992

_aflow_title 'LiClO$_{4}$$\cdot$3H$_{2}$O ($H4_{18}$) Structure'
_aflow_proto 'AB6CD7_hP30_186_b_d_a_b2c'
_aflow_params 'a,c/a,z_{1},z_{2},z_{3},x_{4},z_{4},x_{5},z_{5},x_{6},y_{6},z_{6}'
_aflow_params_values '7.7192,0.706433309151,0.27671,0.5,0.2381,0.56534,0.08902,0.12232,0.02787,-0.06662,0.26326,0.53382'
_aflow_Strukturbericht '$H4_{18}$'
_aflow_Pearson 'hP30'

_symmetry_space_group_name_H-M "P 63 m c"
_symmetry_Int_Tables_number 186
 
_cell_length_a    7.71920
_cell_length_b    7.71920
_cell_length_c    5.45310
_cell_angle_alpha 90.00000
_cell_angle_beta  90.00000
_cell_angle_gamma 120.00000
 
loop_
_space_group_symop_id
_space_group_symop_operation_xyz
1 x,y,z
2 x-y,x,z+1/2
3 -y,x-y,z
4 -x,-y,z+1/2
5 -x+y,-x,z
6 y,-x+y,z+1/2
7 -x+y,y,z
8 -x,-x+y,z+1/2
9 -y,-x,z
10 x-y,-y,z+1/2
11 x,x-y,z
12 y,x,z+1/2
 
loop_
_atom_site_label
_atom_site_type_symbol
_atom_site_symmetry_multiplicity
_atom_site_Wyckoff_label
_atom_site_fract_x
_atom_site_fract_y
_atom_site_fract_z
_atom_site_occupancy
Li1 Li 2 a 0.00000 0.00000 0.27671 1.00000
Cl1 Cl 2 b 0.33333 0.66667 0.50000 1.00000
O1 O 2 b 0.33333 0.66667 0.23810 1.00000
O2 O 6 c 0.56534 0.43466 0.08902 1.00000
O3 O 6 c 0.12232 0.87768 0.02787 1.00000
H1 H 12 d -0.06662 0.26326 0.53382 1.00000