# CIF file 
data_findsym-output
_audit_creation_method FINDSYM

_chemical_name_mineral 'Ca(H2O)8O2'
_chemical_formula_sum 'Ca (H2O)8 O2'

loop_
_publ_author_name
 'R. S. Shineman'
 'A. J. King'
_journal_name_full_name
;
 Acta Cristallographica
;
_journal_volume 4
_journal_year 1951
_journal_page_first 67
_journal_page_last 68
_publ_Section_title
;
 The space group of calcium peroxide octahydrate
;

_aflow_title 'CaO$_{2}$(H$_{2}$O)$_{8}$ Structure'
_aflow_proto 'AB8C2_tP22_124_a_n_h'
_aflow_params 'a,c/a,z_{2},x_{3},y_{3},z_{3}'
_aflow_params_values '6.21,1.77133655395,0.19,0.3,0.11,0.13'
_aflow_Strukturbericht 'None'
_aflow_Pearson 'tP22'

_symmetry_space_group_name_H-M "P 4/m 2/c 2/c"
_symmetry_Int_Tables_number 124
 
_cell_length_a    6.21000
_cell_length_b    6.21000
_cell_length_c    11.00000
_cell_angle_alpha 90.00000
_cell_angle_beta  90.00000
_cell_angle_gamma 90.00000
 
loop_
_space_group_symop_id
_space_group_symop_operation_xyz
1 x,y,z
2 x,-y,-z+1/2
3 -x,y,-z+1/2
4 -x,-y,z
5 -y,-x,-z+1/2
6 -y,x,z
7 y,-x,z
8 y,x,-z+1/2
9 -x,-y,-z
10 -x,y,z+1/2
11 x,-y,z+1/2
12 x,y,-z
13 y,x,z+1/2
14 y,-x,-z
15 -y,x,-z
16 -y,-x,z+1/2
 
loop_
_atom_site_label
_atom_site_type_symbol
_atom_site_symmetry_multiplicity
_atom_site_Wyckoff_label
_atom_site_fract_x
_atom_site_fract_y
_atom_site_fract_z
_atom_site_occupancy
Ca1 Ca 2 a 0.00000 0.00000 0.25000 1.00000
O1 O 4 h 0.50000 0.50000 0.19000 1.00000
H2O1 H2O 16 n 0.30000 0.11000 0.13000 1.00000