# CIF file 
data_findsym-output
_audit_creation_method FINDSYM

_chemical_name_mineral 'AsSi'
_chemical_formula_sum 'As Si'

loop_
_publ_author_name
 'T. Wadsten'
_journal_name_full_name
;
 Acta Chemica Scandinavica
;
_journal_volume 19
_journal_year 1965
_journal_page_first 1232
_journal_page_last 1238
_publ_Section_title
;
 The Crystal Structure of SiAs
;

_aflow_title 'SiAs Structure'
_aflow_proto 'AB_mC24_12_3i_3i'
_aflow_params 'a,b/a,c/a,\beta,x_{1},z_{1},x_{2},z_{2},x_{3},z_{3},x_{4},z_{4},x_{5},z_{5},x_{6},z_{6}'
_aflow_params_values '15.98,0.229536921151,0.596307884856,106.0,0.6632,0.1738,-0.0369,0.1761,0.3479,0.4543,0.2613,0.2076,0.3697,0.0838,-0.0661,0.4116'
_aflow_Strukturbericht 'None'
_aflow_Pearson 'mC24'

_symmetry_space_group_name_H-M "C 1 2/m 1"
_symmetry_Int_Tables_number 12
 
_cell_length_a    15.98000
_cell_length_b    3.66800
_cell_length_c    9.52900
_cell_angle_alpha 90.00000
_cell_angle_beta  106.00000
_cell_angle_gamma 90.00000
 
loop_
_space_group_symop_id
_space_group_symop_operation_xyz
1 x,y,z
2 -x,y,-z
3 -x,-y,-z
4 x,-y,z
5 x+1/2,y+1/2,z
6 -x+1/2,y+1/2,-z
7 -x+1/2,-y+1/2,-z
8 x+1/2,-y+1/2,z
 
loop_
_atom_site_label
_atom_site_type_symbol
_atom_site_symmetry_multiplicity
_atom_site_Wyckoff_label
_atom_site_fract_x
_atom_site_fract_y
_atom_site_fract_z
_atom_site_occupancy
As1 As 4 i 0.66320 0.00000 0.17380 1.00000
As2 As 4 i -0.03690 0.00000 0.17610 1.00000
As3 As 4 i 0.34790 0.00000 0.45430 1.00000
Si1 Si 4 i 0.26130 0.00000 0.20760 1.00000
Si2 Si 4 i 0.36970 0.00000 0.08380 1.00000
Si3 Si 4 i -0.06610 0.00000 0.41160 1.00000