# CIF file 
data_findsym-output
_audit_creation_method FINDSYM

_chemical_name_mineral 'FeKS2'
_chemical_formula_sum 'Fe K S2'

loop_
_publ_author_name
 'W. Bronger'
 'A. Kyas'
 'P. M\"{u}ller'
_journal_name_full_name
;
 Journal of Solid State Chemistry
;
_journal_volume 70
_journal_year 1987
_journal_page_first 262
_journal_page_last 270
_publ_Section_title
;
 The antiferromagnetic structures of KFeS$_{2}$, RbFeS$_{2}$, KFeSe$_{2}$, and RbFeSe$_{2}$ and the correlation between magnetic moments and crystal field calculations
;

_aflow_title 'KFeS$_{2}$ ($F5_{a}$) Structure'
_aflow_proto 'ABC2_mC16_15_e_e_f'
_aflow_params 'a,b/a,c/a,\beta,y_{1},y_{2},x_{3},y_{3},z_{3}'
_aflow_params_values '7.084,1.595567476,0.761434217956,113.2,-0.00332,0.3572,0.196,0.1098,0.1068'
_aflow_Strukturbericht '$F5_{a}$'
_aflow_Pearson 'mC16'

_symmetry_space_group_name_H-M "C 1 2/c 1"
_symmetry_Int_Tables_number 15
 
_cell_length_a    7.08400
_cell_length_b    11.30300
_cell_length_c    5.39400
_cell_angle_alpha 90.00000
_cell_angle_beta  113.20000
_cell_angle_gamma 90.00000
 
loop_
_space_group_symop_id
_space_group_symop_operation_xyz
1 x,y,z
2 -x,y,-z+1/2
3 -x,-y,-z
4 x,-y,z+1/2
5 x+1/2,y+1/2,z
6 -x+1/2,y+1/2,-z+1/2
7 -x+1/2,-y+1/2,-z
8 x+1/2,-y+1/2,z+1/2
 
loop_
_atom_site_label
_atom_site_type_symbol
_atom_site_symmetry_multiplicity
_atom_site_Wyckoff_label
_atom_site_fract_x
_atom_site_fract_y
_atom_site_fract_z
_atom_site_occupancy
Fe1 Fe 4 e 0.00000 -0.00332 0.25000 1.00000
K1 K 4 e 0.00000 0.35720 0.25000 1.00000
S1 S 8 f 0.19600 0.10980 0.10680 1.00000