# CIF file 
data_findsym-output
_audit_creation_method FINDSYM

_chemical_name_mineral 'Silver nitrite'
_chemical_formula_sum 'Ag N O2'

loop_
_publ_author_name
 'S. Ohba'
 'Y. Saito'
_journal_name_full_name
;
 Acta Crystallographica Section B: Structural Science
;
_journal_volume 37
_journal_year 1981
_journal_page_first 1911
_journal_page_last 1913
_publ_Section_title
;
 Structure of silver(I) nitrite, a redetermination
;

_aflow_title 'AgNO$_{2}$ ($F5_{12}$) Structure'
_aflow_proto 'ABC2_oI8_44_a_a_d'
_aflow_params 'a,b/a,c/a,z_{1},z_{2},y_{3},z_{3}'
_aflow_params_values '3.528,1.74943310658,1.46853741497,0.0,0.4446,0.1701,0.5747'
_aflow_Strukturbericht '$F5_{12}$'
_aflow_Pearson 'oI8'

_symmetry_space_group_name_H-M "I m m 2"
_symmetry_Int_Tables_number 44
 
_cell_length_a    3.52800
_cell_length_b    6.17200
_cell_length_c    5.18100
_cell_angle_alpha 90.00000
_cell_angle_beta  90.00000
_cell_angle_gamma 90.00000
 
loop_
_space_group_symop_id
_space_group_symop_operation_xyz
1 x,y,z
2 -x,-y,z
3 -x,y,z
4 x,-y,z
5 x+1/2,y+1/2,z+1/2
6 -x+1/2,-y+1/2,z+1/2
7 -x+1/2,y+1/2,z+1/2
8 x+1/2,-y+1/2,z+1/2
 
loop_
_atom_site_label
_atom_site_type_symbol
_atom_site_symmetry_multiplicity
_atom_site_Wyckoff_label
_atom_site_fract_x
_atom_site_fract_y
_atom_site_fract_z
_atom_site_occupancy
Ag1 Ag 2 a 0.00000 0.00000 0.00000 1.00000
N1 N 2 a 0.00000 0.00000 0.44460 1.00000
O1 O 4 d 0.00000 0.17010 0.57470 1.00000