# CIF file 
data_findsym-output
_audit_creation_method FINDSYM

_chemical_name_mineral 'GaLiO2'
_chemical_formula_sum 'Ga Li O2'

loop_
_publ_author_name
 'M. Marezio'
_journal_name_full_name
;
 Acta Cristallographica
;
_journal_volume 18
_journal_year 1965
_journal_page_first 481
_journal_page_last 484
_publ_Section_title
;
 The Crystal Structure of LiGaO$_{2}$
;

_aflow_title 'LiGaO$_{2}$ Structure'
_aflow_proto 'ABC2_oP16_33_a_a_2a'
_aflow_params 'a,b/a,c/a,x_{1},y_{1},z_{1},x_{2},y_{2},z_{2},x_{3},y_{3},z_{3},x_{4},y_{4},z_{4}'
_aflow_params_values '5.402,1.17956312477,0.926878933728,0.0821,0.1263,0.0,0.4207,0.1267,0.4936,0.4066,0.1388,0.8972,0.0697,0.1121,0.3708'
_aflow_Strukturbericht 'None'
_aflow_Pearson 'oP16'

_symmetry_space_group_name_H-M "P n a 21"
_symmetry_Int_Tables_number 33
 
_cell_length_a    5.40200
_cell_length_b    6.37200
_cell_length_c    5.00700
_cell_angle_alpha 90.00000
_cell_angle_beta  90.00000
_cell_angle_gamma 90.00000
 
loop_
_space_group_symop_id
_space_group_symop_operation_xyz
1 x,y,z
2 -x,-y,z+1/2
3 -x+1/2,y+1/2,z+1/2
4 x+1/2,-y+1/2,z
 
loop_
_atom_site_label
_atom_site_type_symbol
_atom_site_symmetry_multiplicity
_atom_site_Wyckoff_label
_atom_site_fract_x
_atom_site_fract_y
_atom_site_fract_z
_atom_site_occupancy
Ga1 Ga 4 a 0.08210 0.12630 0.00000 1.00000
Li1 Li 4 a 0.42070 0.12670 0.49360 1.00000
O1 O 4 a 0.40660 0.13880 0.89720 1.00000
O2 O 4 a 0.06970 0.11210 0.37080 1.00000