# CIF file 
data_findsym-output
_audit_creation_method FINDSYM

_chemical_name_mineral 'MnPS3'
_chemical_formula_sum 'Mn P S3'

loop_
_publ_author_name
 'G. Ouvrard'
 'R. Brec'
 'J. Rouxel'
_journal_name_full_name
;
 Materials Research Bulletin
;
_journal_volume 20
_journal_year 1985
_journal_page_first 1181
_journal_page_last 1189
_publ_Section_title
;
 Structural determination of some $M$PS$_{3}$ layered phases ($M$ = Mn, Fe, Co, Ni and Cd)
;

# Found in Electronic band structure of the magnetic layered semiconductors $M$PS$_{3}$ ($M$ = Mn, Fe and Ni), 1996

_aflow_title 'MnPS$_{3}$ Structure'
_aflow_proto 'ABC3_mC20_12_g_i_ij'
_aflow_params 'a,b/a,c/a,\beta,y_{1},x_{2},z_{2},x_{3},z_{3},x_{4},y_{4},z_{4}'
_aflow_params_values '6.077,1.73177554714,1.11831495804,107.35,0.33258,0.0556,0.1686,0.7593,0.2497,0.2438,0.1612,0.2516'
_aflow_Strukturbericht 'None'
_aflow_Pearson 'mC20'

_symmetry_space_group_name_H-M "C 1 2/m 1"
_symmetry_Int_Tables_number 12
 
_cell_length_a    6.07700
_cell_length_b    10.52400
_cell_length_c    6.79600
_cell_angle_alpha 90.00000
_cell_angle_beta  107.35000
_cell_angle_gamma 90.00000
 
loop_
_space_group_symop_id
_space_group_symop_operation_xyz
1 x,y,z
2 -x,y,-z
3 -x,-y,-z
4 x,-y,z
5 x+1/2,y+1/2,z
6 -x+1/2,y+1/2,-z
7 -x+1/2,-y+1/2,-z
8 x+1/2,-y+1/2,z
 
loop_
_atom_site_label
_atom_site_type_symbol
_atom_site_symmetry_multiplicity
_atom_site_Wyckoff_label
_atom_site_fract_x
_atom_site_fract_y
_atom_site_fract_z
_atom_site_occupancy
Mn1 Mn 4 g 0.00000 0.33258 0.00000 1.00000
P1 P 4 i 0.05560 0.00000 0.16860 1.00000
S1 S 4 i 0.75930 0.00000 0.24970 1.00000
S2 S 8 j 0.24380 0.16120 0.25160 1.00000