# CIF file 
data_findsym-output
_audit_creation_method FINDSYM

_chemical_name_mineral 'Aragonite'
_chemical_formula_sum 'C Ca O3'

loop_
_publ_author_name
 'J. P. R. {de Villiers}'
_journal_name_full_name
;
 American Mineralogist
;
_journal_volume 56
_journal_year 1971
_journal_page_first 758
_journal_page_last 767
_publ_Section_title
;
 Crystal Structures of Aragonite, Strontianite, and Witherite
;

# Found in Aragonite, {Mineral Database}

_aflow_title 'Aragonite (CaCO$_{3}$, $G0_{2}$) Structure'
_aflow_proto 'ABC3_oP20_62_c_c_cd'
_aflow_params 'a,b/a,c/a,x_{1},z_{1},x_{2},z_{2},x_{3},z_{3},x_{4},y_{4},z_{4}'
_aflow_params_values '5.7404,0.864295171068,1.38789979792,0.4138,0.2622,0.2597,-0.085,0.4038,0.4225,0.414,0.4736,0.181'
_aflow_Strukturbericht '$G0_{2}$'
_aflow_Pearson 'oP20'

_symmetry_space_group_name_H-M "P 21/n 21/m 21/a"
_symmetry_Int_Tables_number 62
 
_cell_length_a    5.74040
_cell_length_b    4.96140
_cell_length_c    7.96710
_cell_angle_alpha 90.00000
_cell_angle_beta  90.00000
_cell_angle_gamma 90.00000
 
loop_
_space_group_symop_id
_space_group_symop_operation_xyz
1 x,y,z
2 x+1/2,-y+1/2,-z+1/2
3 -x,y+1/2,-z
4 -x+1/2,-y,z+1/2
5 -x,-y,-z
6 -x+1/2,y+1/2,z+1/2
7 x,-y+1/2,z
8 x+1/2,y,-z+1/2
 
loop_
_atom_site_label
_atom_site_type_symbol
_atom_site_symmetry_multiplicity
_atom_site_Wyckoff_label
_atom_site_fract_x
_atom_site_fract_y
_atom_site_fract_z
_atom_site_occupancy
C1 C 4 c 0.41380 0.25000 0.26220 1.00000
Ca1 Ca 4 c 0.25970 0.25000 -0.08500 1.00000
O1 O 4 c 0.40380 0.25000 0.42250 1.00000
O2 O 8 d 0.41400 0.47360 0.18100 1.00000
