# CIF file 
data_findsym-output
_audit_creation_method FINDSYM

_chemical_name_mineral 'ILiO3'
_chemical_formula_sum 'I Li O3'

loop_
_publ_author_name
 'A. Rosenzweig'
 'B. Morosin'
_journal_name_full_name
;
 Acta Cristallographica
;
_journal_volume 20
_journal_year 1966
_journal_page_first 758
_journal_page_last 761
_publ_Section_title
;
 A reinvestigation of the crystal structure of LiIO$_{3}$
;

_aflow_title '$\alpha$-LiIO$_{3}$ Structure'
_aflow_proto 'ABC3_hP10_173_b_a_c'
_aflow_params 'a,c/a,z_{1},z_{2},x_{3},y_{3},z_{3}'
_aflow_params_values '5.1815,0.997954260349,0.8907,0.0,0.09358,0.34396,0.1698'
_aflow_Strukturbericht 'None'
_aflow_Pearson 'hP10'

_symmetry_space_group_name_H-M "P 63"
_symmetry_Int_Tables_number 173
 
_cell_length_a    5.18150
_cell_length_b    5.18150
_cell_length_c    5.17090
_cell_angle_alpha 90.00000
_cell_angle_beta  90.00000
_cell_angle_gamma 120.00000
 
loop_
_space_group_symop_id
_space_group_symop_operation_xyz
1 x,y,z
2 x-y,x,z+1/2
3 -y,x-y,z
4 -x,-y,z+1/2
5 -x+y,-x,z
6 y,-x+y,z+1/2
 
loop_
_atom_site_label
_atom_site_type_symbol
_atom_site_symmetry_multiplicity
_atom_site_Wyckoff_label
_atom_site_fract_x
_atom_site_fract_y
_atom_site_fract_z
_atom_site_occupancy
Li1 Li 2 a 0.00000 0.00000 0.89070 1.00000
I1 I 2 b 0.33333 0.66667 0.00000 1.00000
O1 O 6 c 0.09358 0.34396 0.16980 1.00000