# CIF file 
data_findsym-output
_audit_creation_method FINDSYM

_chemical_name_mineral 'AgMnO4'
_chemical_formula_sum 'Ag Mn O4'

loop_
_publ_author_name
 'E. G. Boonstra'
_journal_name_full_name
;
 Acta Crystallographica Section B: Structural Science
;
_journal_volume 24
_journal_year 1968
_journal_page_first 1053
_journal_page_last 1062
_publ_Section_title
;
 The Crystal Structure of Silver Permanganate
;

_aflow_title 'AgMnO$_{4}$ ($H0_{9}$) Structure'
_aflow_proto 'ABC4_mP24_14_e_e_4e'
_aflow_params 'a,b/a,c/a,\beta,x_{1},y_{1},z_{1},x_{2},y_{2},z_{2},x_{3},y_{3},z_{3},x_{4},y_{4},z_{4},x_{5},y_{5},z_{5},x_{6},y_{6},z_{6}'
_aflow_params_values '5.64,1.47695035461,1.57941666667,126.99641,0.0792,0.4672,0.8353,0.5965,0.3132,0.3392,0.7908,0.1508,0.4079,0.2708,0.2767,0.2847,0.5599,0.381,0.1555,0.7557,0.441,0.5037'
_aflow_Strukturbericht '$H0_{9}$'
_aflow_Pearson 'mP24'

_symmetry_space_group_name_H-M "P 1 21/c 1"
_symmetry_Int_Tables_number 14
 
_cell_length_a    5.64000
_cell_length_b    8.33000
_cell_length_c    8.90791
_cell_angle_alpha 90.00000
_cell_angle_beta  126.99641
_cell_angle_gamma 90.00000
 
loop_
_space_group_symop_id
_space_group_symop_operation_xyz
1 x,y,z
2 -x,y+1/2,-z+1/2
3 -x,-y,-z
4 x,-y+1/2,z+1/2
 
loop_
_atom_site_label
_atom_site_type_symbol
_atom_site_symmetry_multiplicity
_atom_site_Wyckoff_label
_atom_site_fract_x
_atom_site_fract_y
_atom_site_fract_z
_atom_site_occupancy
Ag1 Ag 4 e 0.07920 0.46720 0.83530 1.00000
Mn1 Mn 4 e 0.59650 0.31320 0.33920 1.00000
O1 O 4 e 0.79080 0.15080 0.40790 1.00000
O2 O 4 e 0.27080 0.27670 0.28470 1.00000
O3 O 4 e 0.55990 0.38100 0.15550 1.00000
O4 O 4 e 0.75570 0.44100 0.50370 1.00000