# CIF file 
data_findsym-output
_audit_creation_method FINDSYM

_chemical_name_mineral 'KLiO4S'
_chemical_formula_sum 'K Li O4 S'

loop_
_publ_author_name
 'S. {Bhakay-Tamhane}'
 'A. Sequiera'
 'R. Chidambaram'
_journal_name_full_name
;
 Acta Crystallographica Section C: Structural Chemistry
;
_journal_volume 40
_journal_year 1984
_journal_page_first 1648
_journal_page_last 1651
_publ_Section_title
;
 Structure of lithium potassium sulphate, LiKSO$_{4}$: a neutron diffraction study
;

_aflow_title 'LiKSO$_{4}$ ($H1_{4}$) Structure'
_aflow_proto 'ABC4D_hP14_173_a_b_bc_b'
_aflow_params 'a,c/a,z_{1},z_{2},z_{3},z_{4},x_{5},y_{5},z_{5}'
_aflow_params_values '5.146,1.6781966576,0.0,0.3146,0.5358,0.7045,0.3446,0.4031,0.7583'
_aflow_Strukturbericht '$H1_{4}$'
_aflow_Pearson 'hP14'

_symmetry_space_group_name_H-M "P 63"
_symmetry_Int_Tables_number 173
 
_cell_length_a    5.14600
_cell_length_b    5.14600
_cell_length_c    8.63600
_cell_angle_alpha 90.00000
_cell_angle_beta  90.00000
_cell_angle_gamma 120.00000
 
loop_
_space_group_symop_id
_space_group_symop_operation_xyz
1 x,y,z
2 x-y,x,z+1/2
3 -y,x-y,z
4 -x,-y,z+1/2
5 -x+y,-x,z
6 y,-x+y,z+1/2
 
loop_
_atom_site_label
_atom_site_type_symbol
_atom_site_symmetry_multiplicity
_atom_site_Wyckoff_label
_atom_site_fract_x
_atom_site_fract_y
_atom_site_fract_z
_atom_site_occupancy
K1 K 2 a 0.00000 0.00000 0.00000 1.00000
Li1 Li 2 b 0.33333 0.66667 0.31460 1.00000
O1 O 2 b 0.33333 0.66667 0.53580 1.00000
S1 S 2 b 0.33333 0.66667 0.70450 1.00000
O2 O 6 c 0.34460 0.40310 0.75830 1.00000