# CIF file 
data_findsym-output
_audit_creation_method FINDSYM

_chemical_name_mineral 'KNO3'
_chemical_formula_sum 'K N O6'

loop_
_publ_author_name
 'J. K. Nimmo'
 'B. W. Lucas'
_journal_year 1976
_publ_Section_title
;
 The crystal structures of $\gamma$-and $\beta$-KNO$_{3}$ and the $\alpha$-$\beta$-$\gamma$ phase transformations
;

# Found in The American Mineralogist Crystal Structure Database, 2003

_aflow_title '$\beta$-Potassium Nitrate (KNO$_{3}$) Structure'
_aflow_proto 'ABC6_hR8_166_a_b_h'
_aflow_params 'a,c/a,x_{3},z_{3}'
_aflow_params_values '5.425,1.8130875576,0.605,1.215'
_aflow_Strukturbericht 'None'
_aflow_Pearson 'hR8'

_symmetry_space_group_name_H-M "R -3 2/m (hexagonal axes)"
_symmetry_Int_Tables_number 166
 
_cell_length_a    5.42500
_cell_length_b    5.42500
_cell_length_c    9.83600
_cell_angle_alpha 90.00000
_cell_angle_beta  90.00000
_cell_angle_gamma 120.00000
 
loop_
_space_group_symop_id
_space_group_symop_operation_xyz
1 x,y,z
2 -y,x-y,z
3 -x+y,-x,z
4 y,x,-z
5 -x,-x+y,-z
6 x-y,-y,-z
7 -x,-y,-z
8 y,-x+y,-z
9 x-y,x,-z
10 -y,-x,z
11 x,x-y,z
12 -x+y,y,z
13 x+1/3,y+2/3,z+2/3
14 -y+1/3,x-y+2/3,z+2/3
15 -x+y+1/3,-x+2/3,z+2/3
16 y+1/3,x+2/3,-z+2/3
17 -x+1/3,-x+y+2/3,-z+2/3
18 x-y+1/3,-y+2/3,-z+2/3
19 -x+1/3,-y+2/3,-z+2/3
20 y+1/3,-x+y+2/3,-z+2/3
21 x-y+1/3,x+2/3,-z+2/3
22 -y+1/3,-x+2/3,z+2/3
23 x+1/3,x-y+2/3,z+2/3
24 -x+y+1/3,y+2/3,z+2/3
25 x+2/3,y+1/3,z+1/3
26 -y+2/3,x-y+1/3,z+1/3
27 -x+y+2/3,-x+1/3,z+1/3
28 y+2/3,x+1/3,-z+1/3
29 -x+2/3,-x+y+1/3,-z+1/3
30 x-y+2/3,-y+1/3,-z+1/3
31 -x+2/3,-y+1/3,-z+1/3
32 y+2/3,-x+y+1/3,-z+1/3
33 x-y+2/3,x+1/3,-z+1/3
34 -y+2/3,-x+1/3,z+1/3
35 x+2/3,x-y+1/3,z+1/3
36 -x+y+2/3,y+1/3,z+1/3
 
loop_
_atom_site_label
_atom_site_type_symbol
_atom_site_symmetry_multiplicity
_atom_site_Wyckoff_label
_atom_site_fract_x
_atom_site_fract_y
_atom_site_fract_z
_atom_site_occupancy
K1 K 3 a 0.00000 0.00000 0.00000 1.00000
N1 N 3 b 0.00000 0.00000 0.50000 1.00000
O1 O 18 h 0.13000 0.87000 0.47500 0.50000