# CIF file 
data_findsym-output
_audit_creation_method FINDSYM

_chemical_name_mineral 'CuMnP'
_chemical_formula_sum 'Cu Mn P'

loop_
_publ_author_name
 'J. M\"{u}ndelein'
 'H.-U. Schuster'
_journal_name_full_name
;
 Zeitschrift f{\"u}r Naturforschung B
;
_journal_volume 47
_journal_year 1992
_journal_page_first 925
_journal_page_last 928
_publ_Section_title
;
 Darstellung und Kristallstruktur der Verbindungen MnCu$X$ ($X$ = P, As, P$_{x}$As$_{1-x}$)
;

# Found in Room-temperature antiferromagnetism in CuMnAs, 2012

_aflow_title 'MnCuP Structure'
_aflow_proto 'ABC_oP12_62_c_c_c'
_aflow_params 'a,b/a,c/a,x_{1},z_{1},x_{2},z_{2},x_{3},z_{3}'
_aflow_params_values '6.3187,0.58934590976,1.12178137908,0.6282,0.061,0.5376,0.6709,0.2492,0.1245'
_aflow_Strukturbericht 'None'
_aflow_Pearson 'oP12'

_symmetry_space_group_name_H-M "P 21/n 21/m 21/a"
_symmetry_Int_Tables_number 62
 
_cell_length_a    6.31870
_cell_length_b    3.72390
_cell_length_c    7.08820
_cell_angle_alpha 90.00000
_cell_angle_beta  90.00000
_cell_angle_gamma 90.00000
 
loop_
_space_group_symop_id
_space_group_symop_operation_xyz
1 x,y,z
2 x+1/2,-y+1/2,-z+1/2
3 -x,y+1/2,-z
4 -x+1/2,-y,z+1/2
5 -x,-y,-z
6 -x+1/2,y+1/2,z+1/2
7 x,-y+1/2,z
8 x+1/2,y,-z+1/2
 
loop_
_atom_site_label
_atom_site_type_symbol
_atom_site_symmetry_multiplicity
_atom_site_Wyckoff_label
_atom_site_fract_x
_atom_site_fract_y
_atom_site_fract_z
_atom_site_occupancy
Cu1 Cu 4 c 0.62820 0.25000 0.06100 1.00000
Mn1 Mn 4 c 0.53760 0.25000 0.67090 1.00000
P1 P 4 c 0.24920 0.25000 0.12450 1.00000